   2    2    1    1
  1.8387620e+02   4.1217613e-10   4.1217613e-10   1.2497675e-09   0.0000000e+00
            0.000000e+00
  CAR
 DOS and projected DOS file by LOBSTER. Energy is shifted such that the Fermi level lies at 0 eV. 
      7.14353525     -36.90050879  1001       0.14053225       1.00000000
-37.04104   0.00000   0.00000
-36.99700   0.00000   0.00000
-36.95295   0.00000   0.00000
-36.90891   0.00000   0.00000
-36.86486   0.00000   0.00000
-36.82082   0.00000   0.00000
-36.77678   0.00001   0.00000
-36.73273   0.00003   0.00000
-36.68869   0.00013   0.00001
-36.64464   0.00058   0.00003
-36.60060   0.00234   0.00014
-36.55656   0.00853   0.00051
-36.51251   0.02830   0.00176
-36.46847   0.08527   0.00551
-36.42442   0.23343   0.01579
-36.38038   0.58052   0.04136
-36.33634   1.31147   0.09913
-36.29229   2.69153   0.21767
-36.24825   5.01809   0.43869
-36.20420   8.49922   0.81303
-36.16016  13.07747   1.38901
-36.11612  18.27986   2.19413
-36.07207  23.21283   3.21652
-36.02803  26.77875   4.39596
-35.98398  28.06468   5.63204
-35.93994  26.72007   6.80890
-35.89590  23.11122   7.82682
-35.85185  18.15997   8.62666
-35.80781  12.96325   9.19761
-35.76376   8.40655   9.56787
-35.71972   4.95251   9.78600
-35.67568   2.65054   9.90274
-35.63163   1.28868   9.95950
-35.58759   0.56918   9.98456
-35.54354   0.22838   9.99462
-35.49950   0.08324   9.99829
-35.45546   0.02756   9.99950
-35.41141   0.00829   9.99987
-35.36737   0.00227   9.99997
-35.32332   0.00056   9.99999
-35.27928   0.00013  10.00000
-35.23524   0.00003  10.00000
-35.19119   0.00000  10.00000
-35.14715   0.00000  10.00000
-35.10310   0.00000  10.00000
-35.05906   0.00000  10.00000
-35.01502   0.00000  10.00000
-34.97097   0.00000  10.00000
-34.92693   0.00000  10.00000
-34.88288   0.00000  10.00000
-34.83884   0.00000  10.00000
-34.79479   0.00000  10.00000
-34.75075   0.00000  10.00000
-34.70671   0.00000  10.00000
-34.66266   0.00000  10.00000
-34.61862   0.00000  10.00000
-34.57457   0.00000  10.00000
-34.53053   0.00000  10.00000
-34.48649   0.00000  10.00000
-34.44244   0.00000  10.00000
-34.39840   0.00000  10.00000
-34.35435   0.00000  10.00000
-34.31031   0.00000  10.00000
-34.26627   0.00000  10.00000
-34.22222   0.00000  10.00000
-34.17818   0.00000  10.00000
-34.13413   0.00000  10.00000
-34.09009   0.00000  10.00000
-34.04605   0.00000  10.00000
-34.00200   0.00000  10.00000
-33.95796   0.00000  10.00000
-33.91391   0.00000  10.00000
-33.86987   0.00000  10.00000
-33.82583   0.00000  10.00000
-33.78178   0.00000  10.00000
-33.73774   0.00000  10.00000
-33.69369   0.00000  10.00000
-33.64965   0.00000  10.00000
-33.60561   0.00000  10.00000
-33.56156   0.00000  10.00000
-33.51752   0.00000  10.00000
-33.47347   0.00000  10.00000
-33.42943   0.00000  10.00000
-33.38539   0.00000  10.00000
-33.34134   0.00000  10.00000
-33.29730   0.00000  10.00000
-33.25325   0.00000  10.00000
-33.20921   0.00000  10.00000
-33.16517   0.00000  10.00000
-33.12112   0.00000  10.00000
-33.07708   0.00000  10.00000
-33.03303   0.00000  10.00000
-32.98899   0.00000  10.00000
-32.94494   0.00000  10.00000
-32.90090   0.00000  10.00000
-32.85686   0.00000  10.00000
-32.81281   0.00000  10.00000
-32.76877   0.00000  10.00000
-32.72472   0.00000  10.00000
-32.68068   0.00000  10.00000
-32.63664   0.00000  10.00000
-32.59259   0.00000  10.00000
-32.54855   0.00000  10.00000
-32.50450   0.00000  10.00000
-32.46046   0.00000  10.00000
-32.41642   0.00000  10.00000
-32.37237   0.00000  10.00000
-32.32833   0.00000  10.00000
-32.28428   0.00000  10.00000
-32.24024   0.00000  10.00000
-32.19620   0.00000  10.00000
-32.15215   0.00000  10.00000
-32.10811   0.00000  10.00000
-32.06406   0.00000  10.00000
-32.02002   0.00000  10.00000
-31.97598   0.00000  10.00000
-31.93193   0.00000  10.00000
-31.88789   0.00000  10.00000
-31.84384   0.00000  10.00000
-31.79980   0.00000  10.00000
-31.75576   0.00000  10.00000
-31.71171   0.00000  10.00000
-31.66767   0.00000  10.00000
-31.62362   0.00000  10.00000
-31.57958   0.00000  10.00000
-31.53554   0.00000  10.00000
-31.49149   0.00000  10.00000
-31.44745   0.00000  10.00000
-31.40340   0.00000  10.00000
-31.35936   0.00000  10.00000
-31.31532   0.00000  10.00000
-31.27127   0.00000  10.00000
-31.22723   0.00000  10.00000
-31.18318   0.00000  10.00000
-31.13914   0.00000  10.00000
-31.09510   0.00000  10.00000
-31.05105   0.00000  10.00000
-31.00701   0.00000  10.00000
-30.96296   0.00000  10.00000
-30.91892   0.00000  10.00000
-30.87487   0.00000  10.00000
-30.83083   0.00000  10.00000
-30.78679   0.00000  10.00000
-30.74274   0.00000  10.00000
-30.69870   0.00000  10.00000
-30.65465   0.00000  10.00000
-30.61061   0.00000  10.00000
-30.56657   0.00000  10.00000
-30.52252   0.00000  10.00000
-30.47848   0.00000  10.00000
-30.43443   0.00000  10.00000
-30.39039   0.00000  10.00000
-30.34635   0.00000  10.00000
-30.30230   0.00000  10.00000
-30.25826   0.00000  10.00000
-30.21421   0.00000  10.00000
-30.17017   0.00000  10.00000
-30.12613   0.00000  10.00000
-30.08208   0.00000  10.00000
-30.03804   0.00000  10.00000
-29.99399   0.00000  10.00000
-29.94995   0.00000  10.00000
-29.90591   0.00000  10.00000
-29.86186   0.00000  10.00000
-29.81782   0.00000  10.00000
-29.77377   0.00000  10.00000
-29.72973   0.00000  10.00000
-29.68569   0.00000  10.00000
-29.64164   0.00000  10.00000
-29.59760   0.00000  10.00000
-29.55355   0.00000  10.00000
-29.50951   0.00000  10.00000
-29.46547   0.00000  10.00000
-29.42142   0.00000  10.00000
-29.37738   0.00000  10.00000
-29.33333   0.00000  10.00000
-29.28929   0.00000  10.00000
-29.24525   0.00000  10.00000
-29.20120   0.00000  10.00000
-29.15716   0.00000  10.00000
-29.11311   0.00000  10.00000
-29.06907   0.00000  10.00000
-29.02503   0.00000  10.00000
-28.98098   0.00000  10.00000
-28.93694   0.00000  10.00000
-28.89289   0.00000  10.00000
-28.84885   0.00000  10.00000
-28.80480   0.00000  10.00000
-28.76076   0.00000  10.00000
-28.71672   0.00000  10.00000
-28.67267   0.00000  10.00000
-28.62863   0.00000  10.00000
-28.58458   0.00000  10.00000
-28.54054   0.00000  10.00000
-28.49650   0.00000  10.00000
-28.45245   0.00000  10.00000
-28.40841   0.00000  10.00000
-28.36436   0.00000  10.00000
-28.32032   0.00000  10.00000
-28.27628   0.00000  10.00000
-28.23223   0.00000  10.00000
-28.18819   0.00000  10.00000
-28.14414   0.00000  10.00000
-28.10010   0.00000  10.00000
-28.05606   0.00000  10.00000
-28.01201   0.00000  10.00000
-27.96797   0.00000  10.00000
-27.92392   0.00000  10.00000
-27.87988   0.00000  10.00000
-27.83584   0.00000  10.00000
-27.79179   0.00000  10.00000
-27.74775   0.00000  10.00000
-27.70370   0.00000  10.00000
-27.65966   0.00000  10.00000
-27.61562   0.00000  10.00000
-27.57157   0.00000  10.00000
-27.52753   0.00000  10.00000
-27.48348   0.00000  10.00000
-27.43944   0.00000  10.00000
-27.39540   0.00000  10.00000
-27.35135   0.00000  10.00000
-27.30731   0.00000  10.00000
-27.26326   0.00000  10.00000
-27.21922   0.00000  10.00000
-27.17518   0.00000  10.00000
-27.13113   0.00000  10.00000
-27.08709   0.00000  10.00000
-27.04304   0.00000  10.00000
-26.99900   0.00000  10.00000
-26.95495   0.00000  10.00000
-26.91091   0.00000  10.00000
-26.86687   0.00000  10.00000
-26.82282   0.00000  10.00000
-26.77878   0.00000  10.00000
-26.73473   0.00000  10.00000
-26.69069   0.00000  10.00000
-26.64665   0.00000  10.00000
-26.60260   0.00000  10.00000
-26.55856   0.00000  10.00000
-26.51451   0.00000  10.00000
-26.47047   0.00000  10.00000
-26.42643   0.00000  10.00000
-26.38238   0.00000  10.00000
-26.33834   0.00000  10.00000
-26.29429   0.00000  10.00000
-26.25025   0.00000  10.00000
-26.20621   0.00000  10.00000
-26.16216   0.00000  10.00000
-26.11812   0.00000  10.00000
-26.07407   0.00000  10.00000
-26.03003   0.00000  10.00000
-25.98599   0.00000  10.00000
-25.94194   0.00000  10.00000
-25.89790   0.00000  10.00000
-25.85385   0.00000  10.00000
-25.80981   0.00000  10.00000
-25.76577   0.00000  10.00000
-25.72172   0.00000  10.00000
-25.67768   0.00000  10.00000
-25.63363   0.00000  10.00000
-25.58959   0.00000  10.00000
-25.54555   0.00000  10.00000
-25.50150   0.00000  10.00000
-25.45746   0.00000  10.00000
-25.41341   0.00000  10.00000
-25.36937   0.00000  10.00000
-25.32533   0.00000  10.00000
-25.28128   0.00000  10.00000
-25.23724   0.00000  10.00000
-25.19319   0.00000  10.00000
-25.14915   0.00000  10.00000
-25.10511   0.00000  10.00000
-25.06106   0.00000  10.00000
-25.01702   0.00000  10.00000
-24.97297   0.00000  10.00000
-24.92893   0.00000  10.00000
-24.88488   0.00000  10.00000
-24.84084   0.00000  10.00000
-24.79680   0.00000  10.00000
-24.75275   0.00000  10.00000
-24.70871   0.00000  10.00000
-24.66466   0.00000  10.00000
-24.62062   0.00000  10.00000
-24.57658   0.00000  10.00000
-24.53253   0.00000  10.00000
-24.48849   0.00000  10.00000
-24.44444   0.00000  10.00000
-24.40040   0.00000  10.00000
-24.35636   0.00000  10.00000
-24.31231   0.00000  10.00000
-24.26827   0.00000  10.00000
-24.22422   0.00000  10.00000
-24.18018   0.00000  10.00000
-24.13614   0.00000  10.00000
-24.09209   0.00000  10.00000
-24.04805   0.00000  10.00000
-24.00400   0.00000  10.00000
-23.95996   0.00000  10.00000
-23.91592   0.00000  10.00000
-23.87187   0.00000  10.00000
-23.82783   0.00000  10.00000
-23.78378   0.00000  10.00000
-23.73974   0.00000  10.00000
-23.69570   0.00000  10.00000
-23.65165   0.00000  10.00000
-23.60761   0.00000  10.00000
-23.56356   0.00000  10.00000
-23.51952   0.00000  10.00000
-23.47548   0.00000  10.00000
-23.43143   0.00000  10.00000
-23.38739   0.00000  10.00000
-23.34334   0.00000  10.00000
-23.29930   0.00000  10.00000
-23.25526   0.00000  10.00000
-23.21121   0.00000  10.00000
-23.16717   0.00000  10.00000
-23.12312   0.00000  10.00000
-23.07908   0.00000  10.00000
-23.03504   0.00000  10.00000
-22.99099   0.00000  10.00000
-22.94695   0.00000  10.00000
-22.90290   0.00000  10.00000
-22.85886   0.00000  10.00000
-22.81481   0.00000  10.00000
-22.77077   0.00000  10.00000
-22.72673   0.00000  10.00000
-22.68268   0.00000  10.00000
-22.63864   0.00000  10.00000
-22.59459   0.00000  10.00000
-22.55055   0.00000  10.00000
-22.50651   0.00000  10.00000
-22.46246   0.00000  10.00000
-22.41842   0.00000  10.00000
-22.37437   0.00000  10.00000
-22.33033   0.00000  10.00000
-22.28629   0.00000  10.00000
-22.24224   0.00000  10.00000
-22.19820   0.00000  10.00000
-22.15415   0.00000  10.00000
-22.11011   0.00000  10.00000
-22.06607   0.00000  10.00000
-22.02202   0.00000  10.00000
-21.97798   0.00000  10.00000
-21.93393   0.00000  10.00000
-21.88989   0.00000  10.00000
-21.84585   0.00000  10.00000
-21.80180   0.00000  10.00000
-21.75776   0.00000  10.00000
-21.71371   0.00000  10.00000
-21.66967   0.00000  10.00000
-21.62563   0.00000  10.00000
-21.58158   0.00000  10.00000
-21.53754   0.00000  10.00000
-21.49349   0.00000  10.00000
-21.44945   0.00000  10.00000
-21.40541   0.00000  10.00000
-21.36136   0.00000  10.00000
-21.31732   0.00000  10.00000
-21.27327   0.00000  10.00000
-21.22923   0.00000  10.00000
-21.18519   0.00000  10.00000
-21.14114   0.00000  10.00000
-21.09710   0.00000  10.00000
-21.05305   0.00000  10.00000
-21.00901   0.00000  10.00000
-20.96496   0.00000  10.00000
-20.92092   0.00000  10.00000
-20.87688   0.00000  10.00000
-20.83283   0.00000  10.00000
-20.78879   0.00000  10.00000
-20.74474   0.00000  10.00000
-20.70070   0.00000  10.00000
-20.65666   0.00000  10.00000
-20.61261   0.00000  10.00000
-20.56857   0.00000  10.00000
-20.52452   0.00000  10.00000
-20.48048   0.00000  10.00000
-20.43644   0.00000  10.00000
-20.39239   0.00000  10.00000
-20.34835   0.00000  10.00000
-20.30430   0.00000  10.00000
-20.26026   0.00000  10.00000
-20.21622   0.00000  10.00000
-20.17217   0.00000  10.00000
-20.12813   0.00000  10.00000
-20.08408   0.00000  10.00000
-20.04004   0.00000  10.00000
-19.99600   0.00000  10.00000
-19.95195   0.00000  10.00000
-19.90791   0.00000  10.00000
-19.86386   0.00000  10.00000
-19.81982   0.00000  10.00000
-19.77578   0.00000  10.00000
-19.73173   0.00000  10.00000
-19.68769   0.00000  10.00000
-19.64364   0.00000  10.00000
-19.59960   0.00000  10.00000
-19.55556   0.00000  10.00000
-19.51151   0.00000  10.00000
-19.46747   0.00000  10.00000
-19.42342   0.00000  10.00000
-19.37938   0.00000  10.00000
-19.33534   0.00000  10.00000
-19.29129   0.00000  10.00000
-19.24725   0.00000  10.00000
-19.20320   0.00000  10.00000
-19.15916   0.00000  10.00000
-19.11512   0.00000  10.00000
-19.07107   0.00000  10.00000
-19.02703   0.00000  10.00000
-18.98298   0.00000  10.00000
-18.93894   0.00000  10.00000
-18.89489   0.00000  10.00000
-18.85085   0.00000  10.00000
-18.80681   0.00000  10.00000
-18.76276   0.00000  10.00000
-18.71872   0.00000  10.00000
-18.67467   0.00000  10.00000
-18.63063   0.00000  10.00000
-18.58659   0.00000  10.00000
-18.54254   0.00000  10.00000
-18.49850   0.00000  10.00000
-18.45445   0.00000  10.00000
-18.41041   0.00000  10.00000
-18.36637   0.00000  10.00000
-18.32232   0.00000  10.00000
-18.27828   0.00000  10.00000
-18.23423   0.00000  10.00000
-18.19019   0.00000  10.00000
-18.14615   0.00000  10.00000
-18.10210   0.00000  10.00000
-18.05806   0.00000  10.00000
-18.01401   0.00000  10.00000
-17.96997   0.00000  10.00000
-17.92593   0.00000  10.00000
-17.88188   0.00000  10.00000
-17.83784   0.00000  10.00000
-17.79379   0.00000  10.00000
-17.74975   0.00000  10.00000
-17.70571   0.00000  10.00000
-17.66166   0.00000  10.00000
-17.61762   0.00000  10.00000
-17.57357   0.00000  10.00000
-17.52953   0.00000  10.00000
-17.48549   0.00000  10.00000
-17.44144   0.00000  10.00000
-17.39740   0.00000  10.00000
-17.35335   0.00000  10.00000
-17.30931   0.00000  10.00000
-17.26527   0.00000  10.00000
-17.22122   0.00000  10.00000
-17.17718   0.00002  10.00000
-17.13313   0.00008  10.00000
-17.08909   0.00033  10.00002
-17.04505   0.00128  10.00008
-17.00100   0.00456  10.00028
-16.95696   0.01482  10.00093
-16.91291   0.04409  10.00287
-16.86887   0.12016  10.00816
-16.82482   0.30014  10.02138
-16.78078   0.68780  10.05168
-16.73674   1.44697  10.11541
-16.69269   2.79632  10.23857
-16.64865   4.96640  10.45731
-16.60460   8.10865  10.81445
-16.56056  12.17150  11.35053
-16.51652  16.79511  12.09025
-16.47247  21.29810  13.02831
-16.42843  24.80999  14.12104
-16.38438  26.53366  15.28969
-16.34034  26.03592  16.43642
-16.29630  23.42363  17.46809
-16.25225  19.30791  18.31849
-16.20821  14.57186  18.96029
-16.16416  10.06251  19.40348
-16.12012   6.35390  19.68333
-16.07608   3.66666  19.84483
-16.03203   1.93274  19.92996
-15.98799   0.93013  19.97092
-15.94394   0.40852  19.98891
-15.89990   0.16368  19.99612
-15.85586   0.05981  19.99876
-15.81181   0.01993  19.99964
-15.76777   0.00605  19.99990
-15.72372   0.00167  19.99998
-15.67968   0.00042  19.99999
-15.63564   0.00010  20.00000
-15.59159   0.00002  20.00000
-15.54755   0.00000  20.00000
-15.50350   0.00000  20.00000
-15.45946   0.00000  20.00000
-15.41542   0.00000  20.00000
-15.37137   0.00000  20.00000
-15.32733   0.00000  20.00000
-15.28328   0.00000  20.00000
-15.23924   0.00000  20.00000
-15.19520   0.00000  20.00000
-15.15115   0.00000  20.00000
-15.10711   0.00000  20.00000
-15.06306   0.00000  20.00000
-15.01902   0.00000  20.00000
-14.97497   0.00000  20.00000
-14.93093   0.00000  20.00000
-14.88689   0.00000  20.00000
-14.84284   0.00000  20.00000
-14.79880   0.00000  20.00000
-14.75475   0.00000  20.00000
-14.71071   0.00000  20.00000
-14.66667   0.00000  20.00000
-14.62262   0.00000  20.00000
-14.57858   0.00000  20.00000
-14.53453   0.00000  20.00000
-14.49049   0.00000  20.00000
-14.44645   0.00000  20.00000
-14.40240   0.00000  20.00000
-14.35836   0.00000  20.00000
-14.31431   0.00000  20.00000
-14.27027   0.00000  20.00000
-14.22623   0.00000  20.00000
-14.18218   0.00000  20.00000
-14.13814   0.00000  20.00000
-14.09409   0.00000  20.00000
-14.05005   0.00000  20.00000
-14.00601   0.00000  20.00000
-13.96196   0.00000  20.00000
-13.91792   0.00000  20.00000
-13.87387   0.00000  20.00000
-13.82983   0.00000  20.00000
-13.78579   0.00000  20.00000
-13.74174   0.00000  20.00000
-13.69770   0.00000  20.00000
-13.65365   0.00000  20.00000
-13.60961   0.00000  20.00000
-13.56557   0.00000  20.00000
-13.52152   0.00000  20.00000
-13.47748   0.00000  20.00000
-13.43343   0.00000  20.00000
-13.38939   0.00000  20.00000
-13.34535   0.00000  20.00000
-13.30130   0.00000  20.00000
-13.25726   0.00000  20.00000
-13.21321   0.00000  20.00000
-13.16917   0.00000  20.00000
-13.12513   0.00000  20.00000
-13.08108   0.00000  20.00000
-13.03704   0.00000  20.00000
-12.99299   0.00000  20.00000
-12.94895   0.00000  20.00000
-12.90490   0.00000  20.00000
-12.86086   0.00000  20.00000
-12.81682   0.00000  20.00000
-12.77277   0.00000  20.00000
-12.72873   0.00000  20.00000
-12.68468   0.00000  20.00000
-12.64064   0.00000  20.00000
-12.59660   0.00000  20.00000
-12.55255   0.00000  20.00000
-12.50851   0.00000  20.00000
-12.46446   0.00000  20.00000
-12.42042   0.00000  20.00000
-12.37638   0.00001  20.00000
-12.33233   0.00003  20.00000
-12.28829   0.00009  20.00001
-12.24424   0.00030  20.00002
-12.20020   0.00088  20.00006
-12.15616   0.00235  20.00016
-12.11211   0.00576  20.00042
-12.06807   0.01290  20.00098
-12.02402   0.02653  20.00215
-11.97998   0.05019  20.00436
-11.93594   0.08753  20.00822
-11.89189   0.14113  20.01443
-11.84785   0.21111  20.02373
-11.80380   0.29427  20.03669
-11.75976   0.38426  20.05362
-11.71572   0.47305  20.07445
-11.67167   0.55310  20.09881
-11.62763   0.61927  20.12609
-11.58358   0.66980  20.15559
-11.53954   0.70593  20.18668
-11.49550   0.73077  20.21887
-11.45145   0.74792  20.25181
-11.40741   0.76052  20.28530
-11.36336   0.77084  20.31926
-11.31932   0.78029  20.35362
-11.27528   0.78971  20.38840
-11.23123   0.79957  20.42362
-11.18719   0.81008  20.45930
-11.14314   0.82126  20.49547
-11.09910   0.83316  20.53217
-11.05506   0.84603  20.56943
-11.01101   0.86021  20.60732
-10.96697   0.87590  20.64590
-10.92292   0.89305  20.68523
-10.87888   0.91170  20.72538
-10.83483   0.93232  20.76645
-10.79079   0.95578  20.80854
-10.74675   0.98298  20.85184
-10.70270   1.01458  20.89652
-10.65866   1.05143  20.94283
-10.61461   1.09523  20.99107
-10.57057   1.14858  21.04166
-10.52653   1.21424  21.09514
-10.48248   1.29363  21.15212
-10.43844   1.38553  21.21314
-10.39439   1.48498  21.27855
-10.35035   1.58261  21.34825
-10.30631   1.66487  21.42158
-10.26226   1.71615  21.49716
-10.21822   1.72249  21.57303
-10.17417   1.67564  21.64683
-10.13013   1.57530  21.71621
-10.08609   1.42860  21.77914
-10.04204   1.24764  21.83409
 -9.99800   1.04674  21.88019
 -9.95395   0.84060  21.91721
 -9.90991   0.64304  21.94554
 -9.86587   0.46597  21.96606
 -9.82182   0.31800  21.98006
 -9.77778   0.20324  21.98902
 -9.73373   0.12104  21.99435
 -9.68969   0.06688  21.99729
 -9.64565   0.03416  21.99880
 -9.60160   0.01608  21.99951
 -9.55756   0.00696  21.99981
 -9.51351   0.00277  21.99993
 -9.46947   0.00101  21.99998
 -9.42543   0.00034  21.99999
 -9.38138   0.00010  22.00000
 -9.33734   0.00003  22.00000
 -9.29329   0.00001  22.00000
 -9.24925   0.00000  22.00000
 -9.20521   0.00000  22.00000
 -9.16116   0.00000  22.00000
 -9.11712   0.00000  22.00000
 -9.07307   0.00000  22.00000
 -9.02903   0.00000  22.00000
 -8.98498   0.00000  22.00000
 -8.94094   0.00000  22.00000
 -8.89690   0.00000  22.00000
 -8.85285   0.00000  22.00000
 -8.80881   0.00000  22.00000
 -8.76476   0.00000  22.00000
 -8.72072   0.00000  22.00000
 -8.67668   0.00000  22.00000
 -8.63263   0.00000  22.00000
 -8.58859   0.00000  22.00000
 -8.54454   0.00000  22.00000
 -8.50050   0.00000  22.00000
 -8.45646   0.00000  22.00000
 -8.41241   0.00002  22.00000
 -8.36837   0.00006  22.00000
 -8.32432   0.00022  22.00001
 -8.28028   0.00071  22.00004
 -8.23624   0.00213  22.00014
 -8.19219   0.00586  22.00040
 -8.14815   0.01476  22.00105
 -8.10410   0.03417  22.00255
 -8.06006   0.07269  22.00575
 -8.01602   0.14238  22.01202
 -7.97197   0.25708  22.02335
 -7.92793   0.42859  22.04222
 -7.88388   0.66090  22.07133
 -7.83984   0.94471  22.11294
 -7.79580   1.25510  22.16822
 -7.75175   1.55507  22.23671
 -7.70771   1.80475  22.31620
 -7.66366   1.97318  22.40311
 -7.61962   2.04752  22.49329
 -7.57558   2.03544  22.58294
 -7.53153   1.96028  22.66928
 -7.48749   1.85183  22.75084
 -7.44344   1.73734  22.82736
 -7.39940   1.63617  22.89942
 -7.35536   1.55906  22.96809
 -7.31131   1.51042  23.03461
 -7.26727   1.49171  23.10032
 -7.22322   1.50374  23.16655
 -7.17918   1.54715  23.23469
 -7.13514   1.62046  23.30606
 -7.09109   1.71635  23.38166
 -7.04705   1.81794  23.46172
 -7.00300   1.89785  23.54531
 -6.95896   1.92274  23.63000
 -6.91491   1.86333  23.71207
 -6.87087   1.70650  23.78723
 -6.82683   1.46292  23.85166
 -6.78278   1.16543  23.90299
 -6.73874   0.85815  23.94079
 -6.69469   0.58173  23.96641
 -6.65065   0.36199  23.98235
 -6.60661   0.20631  23.99144
 -6.56256   0.10752  23.99618
 -6.51852   0.05117  23.99843
 -6.47447   0.02222  23.99941
 -6.43043   0.00880  23.99980
 -6.38639   0.00317  23.99994
 -6.34234   0.00104  23.99998
 -6.29830   0.00031  24.00000
 -6.25425   0.00008  24.00000
 -6.21021   0.00002  24.00000
 -6.16617   0.00000  24.00000
 -6.12212   0.00000  24.00000
 -6.07808   0.00000  24.00000
 -6.03403   0.00000  24.00000
 -5.98999   0.00000  24.00000
 -5.94595   0.00000  24.00000
 -5.90190   0.00000  24.00000
 -5.85786   0.00000  24.00000
 -5.81381   0.00000  24.00000
 -5.76977   0.00000  24.00000
 -5.72573   0.00000  24.00000
 -5.68168   0.00000  24.00000
 -5.63764   0.00000  24.00000
 -5.59359   0.00000  24.00000
 -5.54955   0.00000  24.00000
 -5.50551   0.00000  24.00000
 -5.46146   0.00000  24.00000
 -5.41742   0.00000  24.00000
 -5.37337   0.00000  24.00000
 -5.32933   0.00000  24.00000
 -5.28529   0.00000  24.00000
 -5.24124   0.00000  24.00000
 -5.19720   0.00000  24.00000
 -5.15315   0.00000  24.00000
 -5.10911   0.00000  24.00000
 -5.06507   0.00000  24.00000
 -5.02102   0.00000  24.00000
 -4.97698   0.00000  24.00000
 -4.93293   0.00000  24.00000
 -4.88889   0.00000  24.00000
 -4.84484   0.00000  24.00000
 -4.80080   0.00000  24.00000
 -4.75676   0.00000  24.00000
 -4.71271   0.00000  24.00000
 -4.66867   0.00000  24.00000
 -4.62462   0.00000  24.00000
 -4.58058   0.00000  24.00000
 -4.53654   0.00000  24.00000
 -4.49249   0.00000  24.00000
 -4.44845   0.00000  24.00000
 -4.40440   0.00000  24.00000
 -4.36036   0.00000  24.00000
 -4.31632   0.00000  24.00000
 -4.27227   0.00000  24.00000
 -4.22823   0.00000  24.00000
 -4.18418   0.00000  24.00000
 -4.14014   0.00000  24.00000
 -4.09610   0.00000  24.00000
 -4.05205   0.00000  24.00000
 -4.00801   0.00000  24.00000
 -3.96396   0.00000  24.00000
 -3.91992   0.00000  24.00000
 -3.87588   0.00000  24.00000
 -3.83183   0.00000  24.00000
 -3.78779   0.00000  24.00000
 -3.74374   0.00000  24.00000
 -3.69970   0.00001  24.00000
 -3.65566   0.00005  24.00000
 -3.61161   0.00015  24.00001
 -3.56757   0.00048  24.00003
 -3.52352   0.00136  24.00009
 -3.47948   0.00358  24.00025
 -3.43544   0.00868  24.00063
 -3.39139   0.01949  24.00149
 -3.34735   0.04068  24.00328
 -3.30330   0.07939  24.00678
 -3.25926   0.14563  24.01319
 -3.21522   0.25222  24.02430
 -3.17117   0.41369  24.04252
 -3.12713   0.64334  24.07086
 -3.08308   0.94763  24.11259
 -3.03904   1.31889  24.17068
 -2.99499   1.72921  24.24684
 -2.95095   2.13043  24.34068
 -2.90691   2.46369  24.44919
 -2.86286   2.67688  24.56709
 -2.81882   2.74273  24.68789
 -2.77477   2.66801  24.80540
 -2.73073   2.48900  24.91503
 -2.68669   2.25609  25.01439
 -2.64264   2.01628  25.10320
 -2.59860   1.80181  25.18256
 -2.55455   1.62845  25.25428
 -2.51051   1.50044  25.32037
 -2.46647   1.41687  25.38277
 -2.42242   1.37524  25.44334
 -2.37838   1.37177  25.50376
 -2.33433   1.40037  25.56544
 -2.29029   1.45275  25.62942
 -2.24625   1.51992  25.69637
 -2.20220   1.59362  25.76656
 -2.15816   1.66588  25.83993
 -2.11411   1.72708  25.91600
 -2.07007   1.76483  25.99373
 -2.02603   1.76616  26.07151
 -1.98198   1.72324  26.14741
 -1.93794   1.63960  26.21963
 -1.89389   1.53283  26.28714
 -1.84985   1.43069  26.35015
 -1.80581   1.36183  26.41013
 -1.76176   1.34558  26.46940
 -1.71772   1.38669  26.53047
 -1.67367   1.47771  26.59556
 -1.62963   1.60681  26.66633
 -1.58559   1.76519  26.74408
 -1.54154   1.94890  26.82991
 -1.49750   2.15465  26.92481
 -1.45345   2.37367  27.02936
 -1.40941   2.58868  27.14337
 -1.36537   2.77624  27.26565
 -1.32132   2.91300  27.39395
 -1.27728   2.98259  27.52532
 -1.23323   2.98041  27.65659
 -1.18919   2.91521  27.78498
 -1.14515   2.80728  27.90863
 -1.10110   2.68363  28.02683
 -1.05706   2.57130  28.14008
 -1.01301   2.49111  28.24979
 -0.96897   2.45421  28.35789
 -0.92492   2.46238  28.46634
 -0.88088   2.51076  28.57692
 -0.83684   2.59052  28.69102
 -0.79279   2.68900  28.80946
 -0.74875   2.78745  28.93223
 -0.70470   2.85915  29.05816
 -0.66066   2.87160  29.18463
 -0.61662   2.79472  29.30772
 -0.57257   2.61284  29.42280
 -0.52853   2.33403  29.52560
 -0.48448   1.99085  29.61329
 -0.44044   1.63063  29.68511
 -0.39640   1.29981  29.74236
 -0.35235   1.02985  29.78772
 -0.30831   0.83105  29.82432
 -0.26426   0.69510  29.85493
 -0.22022   0.60338  29.88151
 -0.17618   0.53565  29.90510
 -0.13213   0.47604  29.92607
 -0.08809   0.41533  29.94436
 -0.04404   0.35053  29.95980
  0.00000   0.28315  29.97227
  0.04404   0.21718  29.98184
  0.08809   0.15715  29.98876
  0.13213   0.10668  29.99346
  0.17618   0.06761  29.99643
  0.22022   0.03983  29.99819
  0.26426   0.02172  29.99914
  0.30831   0.01094  29.99963
  0.35235   0.00507  29.99985
  0.39640   0.00216  29.99994
  0.44044   0.00084  29.99998
  0.48448   0.00030  29.99999
  0.52853   0.00010  30.00000
  0.57257   0.00003  30.00000
  0.61662   0.00001  30.00000
  0.66066   0.00000  30.00000
  0.70470   0.00000  30.00000
  0.74875   0.00000  30.00000
  0.79279   0.00000  30.00000
  0.83684   0.00000  30.00000
  0.88088   0.00000  30.00000
  0.92492   0.00000  30.00000
  0.96897   0.00000  30.00000
  1.01301   0.00002  30.00000
  1.05706   0.00006  30.00000
  1.10110   0.00021  30.00001
  1.14515   0.00065  30.00004
  1.18919   0.00184  30.00012
  1.23323   0.00481  30.00033
  1.27728   0.01153  30.00084
  1.32132   0.02546  30.00196
  1.36537   0.05193  30.00425
  1.40941   0.09806  30.00857
  1.45345   0.17194  30.01614
  1.49750   0.28086  30.02851
  1.54154   0.42908  30.04741
  1.58559   0.61605  30.07454
  1.62963   0.83624  30.11138
  1.67367   1.08095  30.15898
  1.71772   1.34155  30.21807
  1.76176   1.61190  30.28907
  1.80581   1.88868  30.37225
  1.84985   2.16935  30.46780
  1.89389   2.44959  30.57569
  1.93794   2.72169  30.69556
  1.98198   2.97368  30.82653
  2.02603   3.18791  30.96694
  2.07007   3.33926  31.11402
  2.11411   3.39588  31.26359
  2.15816   3.32609  31.41008
  2.20220   3.11106  31.54710
  2.24625   2.75719  31.66854
  2.29029   2.30033  31.76986
  2.33433   1.79774  31.84904
  2.37838   1.31141  31.90680
  2.42242   0.89094  31.94604
  2.46647   0.56350  31.97086
  2.51051   0.33355  31.98555
  2.55455   0.18979  31.99391
  2.59860   0.11470  31.99896
  2.64264   0.09229  32.00302
  2.68669   0.11220  32.00797
  2.73073   0.17008  32.01546
  2.77477   0.26539  32.02715
  2.81882   0.39831  32.04469
  2.86286   0.56710  32.06967
  2.90691   0.76669  32.10343
  2.95095   0.98883  32.14699
  2.99499   1.22338  32.20087
  3.03904   1.45998  32.26517
  3.08308   1.68953  32.33959
  3.12713   1.90484  32.42348
  3.17117   2.10069  32.51601
  3.21522   2.27352  32.61614
  3.25926   2.42184  32.72281
  3.30330   2.54707  32.83499
  3.34735   2.65402  32.95189
  3.39139   2.74943  33.07298
  3.43544   2.83845  33.19800
  3.47948   2.92070  33.32664
  3.52352   2.98889  33.45828
  3.56757   3.03187  33.59182
  3.61161   3.04159  33.72578
  3.65566   3.02102  33.85884
  3.69970   2.98892  33.99048
  3.74374   2.97859  34.12167
  3.78779   3.02878  34.25507
  3.83183   3.16860  34.39463
  3.87588   3.40067  34.54441
  3.91992   3.69035  34.70695
  3.96396   3.96792  34.88171
  4.00801   4.14616  35.06432
  4.05205   4.14795  35.24702
  4.09610   3.93289  35.42024
  4.14014   3.51118  35.57488
  4.18418   2.93941  35.70435
  4.22823   2.30105  35.80569
  4.27227   1.68089  35.87973
  4.31632   1.14369  35.93010
  4.36036   0.72357  35.96197
  4.40440   0.42489  35.98068
  4.44845   0.23117  35.99086
  4.49249   0.11632  35.99599
  4.53654   0.05403  35.99837
  4.58058   0.02313  35.99939
  4.62462   0.00911  35.99979
  4.66867   0.00330  35.99993
  4.71271   0.00109  35.99998
  4.75676   0.00033  35.99999
  4.80080   0.00009  36.00000
  4.84484   0.00002  36.00000
  4.88889   0.00001  36.00000
  4.93293   0.00000  36.00000
  4.97698   0.00000  36.00000
  5.02102   0.00000  36.00000
  5.06507   0.00000  36.00000
  5.10911   0.00000  36.00000
  5.15315   0.00000  36.00000
  5.19720   0.00000  36.00000
  5.24124   0.00000  36.00000
  5.28529   0.00000  36.00000
  5.32933   0.00000  36.00000
  5.37337  -0.00000  36.00000
  5.41742   0.00000  36.00000
  5.46146   0.00000  36.00000
  5.50551   0.00000  36.00000
  5.54955   0.00000  36.00000
  5.59359   0.00000  36.00000
  5.63764   0.00000  36.00000
  5.68168   0.00000  36.00000
  5.72573   0.00000  36.00000
  5.76977   0.00000  36.00000
  5.81381   0.00000  36.00000
  5.85786   0.00000  36.00000
  5.90190   0.00000  36.00000
  5.94595   0.00000  36.00000
  5.98999   0.00000  36.00000
  6.03403   0.00000  36.00000
  6.07808   0.00000  36.00000
  6.12212   0.00000  36.00000
  6.16617   0.00000  36.00000
  6.21021   0.00000  36.00000
  6.25425   0.00000  36.00000
  6.29830   0.00000  36.00000
  6.34234   0.00000  36.00000
  6.38639   0.00000  36.00000
  6.43043   0.00000  36.00000
  6.47447   0.00000  36.00000