   4    4    1    1
  4.5124841e+02   4.4141437e-10   4.4434089e-10   2.3006627e-09   0.0000000e+00
            0.000000e+00
  CAR
 DOS and projected DOS file by LOBSTER. Energy is shifted such that the Fermi level lies at 0 eV. 
     19.95809667     -30.09195338  1001      -0.06192335       1.00000000
-30.03003   0.00000  20.00000
-29.97998   0.00000  20.00000
-29.92993   0.00000  20.00000
-29.87988   0.00000  20.00000
-29.82983   0.00000  20.00000
-29.77978   0.00000  20.00000
-29.72973   0.00000  20.00000
-29.67968   0.00000  20.00000
-29.62963   0.00000  20.00000
-29.57958   0.00000  20.00000
-29.52953   0.00000  20.00000
-29.47948   0.00000  20.00000
-29.42943   0.00000  20.00000
-29.37938   0.00000  20.00000
-29.32933   0.00000  20.00000
-29.27928   0.00000  20.00000
-29.22923   0.00000  20.00000
-29.17918   0.00000  20.00000
-29.12913   0.00000  20.00000
-29.07908   0.00000  20.00000
-29.02903   0.00000  20.00000
-28.97898   0.00000  20.00000
-28.92893   0.00000  20.00000
-28.87888   0.00000  20.00000
-28.82883   0.00000  20.00000
-28.77878   0.00000  20.00000
-28.72873   0.00000  20.00000
-28.67868   0.00000  20.00000
-28.62863   0.00000  20.00000
-28.57858   0.00000  20.00000
-28.52853   0.00000  20.00000
-28.47848   0.00000  20.00000
-28.42843   0.00000  20.00000
-28.37838   0.00000  20.00000
-28.32833   0.00000  20.00000
-28.27828   0.00000  20.00000
-28.22823   0.00000  20.00000
-28.17818   0.00000  20.00000
-28.12813   0.00000  20.00000
-28.07808   0.00000  20.00000
-28.02803   0.00000  20.00000
-27.97798   0.00000  20.00000
-27.92793   0.00000  20.00000
-27.87788   0.00000  20.00000
-27.82783   0.00000  20.00000
-27.77778   0.00000  20.00000
-27.72773   0.00000  20.00000
-27.67768   0.00000  20.00000
-27.62763   0.00000  20.00000
-27.57758   0.00000  20.00000
-27.52753   0.00000  20.00000
-27.47748   0.00000  20.00000
-27.42743   0.00000  20.00000
-27.37738   0.00000  20.00000
-27.32733   0.00000  20.00000
-27.27728   0.00000  20.00000
-27.22723   0.00000  20.00000
-27.17718   0.00000  20.00000
-27.12713   0.00000  20.00000
-27.07708   0.00000  20.00000
-27.02703   0.00000  20.00000
-26.97698   0.00000  20.00000
-26.92693   0.00000  20.00000
-26.87688   0.00000  20.00000
-26.82683   0.00000  20.00000
-26.77678   0.00000  20.00000
-26.72673   0.00000  20.00000
-26.67668   0.00000  20.00000
-26.62663   0.00000  20.00000
-26.57658   0.00000  20.00000
-26.52653   0.00000  20.00000
-26.47648   0.00000  20.00000
-26.42643   0.00000  20.00000
-26.37638   0.00000  20.00000
-26.32633   0.00000  20.00000
-26.27628   0.00000  20.00000
-26.22623   0.00000  20.00000
-26.17618   0.00000  20.00000
-26.12613   0.00000  20.00000
-26.07608   0.00000  20.00000
-26.02603   0.00000  20.00000
-25.97598   0.00000  20.00000
-25.92593   0.00000  20.00000
-25.87588   0.00000  20.00000
-25.82583   0.00000  20.00000
-25.77578   0.00000  20.00000
-25.72573   0.00000  20.00000
-25.67568   0.00000  20.00000
-25.62563   0.00000  20.00000
-25.57558   0.00000  20.00000
-25.52553   0.00000  20.00000
-25.47548   0.00000  20.00000
-25.42543   0.00000  20.00000
-25.37538   0.00000  20.00000
-25.32533   0.00000  20.00000
-25.27528   0.00000  20.00000
-25.22523   0.00000  20.00000
-25.17518   0.00000  20.00000
-25.12513   0.00000  20.00000
-25.07508   0.00000  20.00000
-25.02503   0.00000  20.00000
-24.97497   0.00000  20.00000
-24.92492   0.00000  20.00000
-24.87487   0.00000  20.00000
-24.82482   0.00000  20.00000
-24.77477   0.00000  20.00000
-24.72472   0.00000  20.00000
-24.67467   0.00000  20.00000
-24.62462   0.00000  20.00000
-24.57457   0.00000  20.00000
-24.52452   0.00000  20.00000
-24.47447   0.00000  20.00000
-24.42442   0.00000  20.00000
-24.37437   0.00000  20.00000
-24.32432   0.00000  20.00000
-24.27427   0.00000  20.00000
-24.22422   0.00000  20.00000
-24.17417   0.00000  20.00000
-24.12412   0.00000  20.00000
-24.07407   0.00000  20.00000
-24.02402   0.00000  20.00000
-23.97397   0.00000  20.00000
-23.92392   0.00000  20.00000
-23.87387   0.00000  20.00000
-23.82382   0.00000  20.00000
-23.77377   0.00000  20.00000
-23.72372   0.00000  20.00000
-23.67367   0.00000  20.00000
-23.62362   0.00000  20.00000
-23.57357   0.00000  20.00000
-23.52352   0.00000  20.00000
-23.47347   0.00000  20.00000
-23.42342   0.00000  20.00000
-23.37337   0.00000  20.00000
-23.32332   0.00000  20.00000
-23.27327   0.00000  20.00000
-23.22322   0.00000  20.00000
-23.17317   0.00000  20.00000
-23.12312   0.00000  20.00000
-23.07307   0.00000  20.00000
-23.02302   0.00000  20.00000
-22.97297   0.00000  20.00000
-22.92292   0.00000  20.00000
-22.87287   0.00000  20.00000
-22.82282   0.00000  20.00000
-22.77277   0.00000  20.00000
-22.72272   0.00000  20.00000
-22.67267   0.00000  20.00000
-22.62262   0.00002  20.00000
-22.57257   0.00010  20.00001
-22.52252   0.00056  20.00003
-22.47247   0.00282  20.00018
-22.42242   0.01260  20.00081
-22.37237   0.04974  20.00329
-22.32232   0.17371  20.01199
-22.27227   0.53675  20.03885
-22.22222   1.46728  20.11229
-22.17217   3.54850  20.28989
-22.12212   7.59217  20.66988
-22.07207  14.37053  21.38913
-22.02202  24.06363  22.59351
-21.97197  35.64703  24.37765
-21.92192  46.71442  26.71571
-21.87187  54.15440  29.42614
-21.82182  55.53418  32.20563
-21.77177  50.37531  34.72691
-21.72172  40.41958  36.74992
-21.67167  28.68580  38.18564
-21.62162  18.00639  39.08686
-21.57157   9.99663  39.58719
-21.52152   4.90827  39.83285
-21.47147   2.13125  39.93952
-21.42142   0.81836  39.98048
-21.37137   0.27787  39.99439
-21.32132   0.08343  39.99857
-21.27127   0.02215  39.99967
-21.22122   0.00520  39.99993
-21.17117   0.00108  39.99999
-21.12112   0.00020  40.00000
-21.07107   0.00003  40.00000
-21.02102   0.00000  40.00000
-20.97097   0.00000  40.00000
-20.92092   0.00000  40.00000
-20.87087   0.00000  40.00000
-20.82082   0.00000  40.00000
-20.77077   0.00000  40.00000
-20.72072   0.00000  40.00000
-20.67067   0.00000  40.00000
-20.62062   0.00000  40.00000
-20.57057   0.00000  40.00000
-20.52052   0.00000  40.00000
-20.47047   0.00000  40.00000
-20.42042   0.00000  40.00000
-20.37037   0.00000  40.00000
-20.32032   0.00000  40.00000
-20.27027   0.00000  40.00000
-20.22022   0.00000  40.00000
-20.17017   0.00000  40.00000
-20.12012   0.00000  40.00000
-20.07007   0.00000  40.00000
-20.02002   0.00000  40.00000
-19.96997   0.00000  40.00000
-19.91992   0.00000  40.00000
-19.86987   0.00000  40.00000
-19.81982   0.00000  40.00000
-19.76977   0.00000  40.00000
-19.71972   0.00000  40.00000
-19.66967   0.00000  40.00000
-19.61962   0.00000  40.00000
-19.56957   0.00000  40.00000
-19.51952   0.00000  40.00000
-19.46947   0.00000  40.00000
-19.41942   0.00000  40.00000
-19.36937   0.00000  40.00000
-19.31932   0.00000  40.00000
-19.26927   0.00000  40.00000
-19.21922   0.00000  40.00000
-19.16917   0.00000  40.00000
-19.11912   0.00000  40.00000
-19.06907   0.00000  40.00000
-19.01902   0.00000  40.00000
-18.96897   0.00000  40.00000
-18.91892   0.00000  40.00000
-18.86887   0.00000  40.00000
-18.81882   0.00000  40.00000
-18.76877   0.00000  40.00000
-18.71872   0.00000  40.00000
-18.66867   0.00000  40.00000
-18.61862   0.00000  40.00000
-18.56857   0.00000  40.00000
-18.51852   0.00000  40.00000
-18.46847   0.00000  40.00000
-18.41842   0.00000  40.00000
-18.36837   0.00000  40.00000
-18.31832   0.00000  40.00000
-18.26827   0.00000  40.00000
-18.21822   0.00000  40.00000
-18.16817   0.00000  40.00000
-18.11812   0.00000  40.00000
-18.06807   0.00000  40.00000
-18.01802   0.00000  40.00000
-17.96797   0.00000  40.00000
-17.91792   0.00000  40.00000
-17.86787   0.00000  40.00000
-17.81782   0.00000  40.00000
-17.76777   0.00000  40.00000
-17.71772   0.00000  40.00000
-17.66767   0.00000  40.00000
-17.61762   0.00000  40.00000
-17.56757   0.00000  40.00000
-17.51752   0.00000  40.00000
-17.46747   0.00000  40.00000
-17.41742   0.00000  40.00000
-17.36737   0.00000  40.00000
-17.31732   0.00000  40.00000
-17.26727   0.00000  40.00000
-17.21722   0.00000  40.00000
-17.16717   0.00000  40.00000
-17.11712   0.00000  40.00000
-17.06707   0.00000  40.00000
-17.01702   0.00000  40.00000
-16.96697   0.00000  40.00000
-16.91692   0.00000  40.00000
-16.86687   0.00000  40.00000
-16.81682   0.00000  40.00000
-16.76677   0.00000  40.00000
-16.71672   0.00000  40.00000
-16.66667   0.00000  40.00000
-16.61662   0.00000  40.00000
-16.56657   0.00000  40.00000
-16.51652   0.00000  40.00000
-16.46647   0.00000  40.00000
-16.41642   0.00000  40.00000
-16.36637   0.00000  40.00000
-16.31632   0.00000  40.00000
-16.26627   0.00000  40.00000
-16.21622   0.00000  40.00000
-16.16617   0.00000  40.00000
-16.11612   0.00000  40.00000
-16.06607   0.00000  40.00000
-16.01602   0.00000  40.00000
-15.96597   0.00000  40.00000
-15.91592   0.00000  40.00000
-15.86587   0.00000  40.00000
-15.81582   0.00000  40.00000
-15.76577   0.00000  40.00000
-15.71572   0.00000  40.00000
-15.66567   0.00000  40.00000
-15.61562   0.00000  40.00000
-15.56557   0.00000  40.00000
-15.51552   0.00000  40.00000
-15.46547   0.00000  40.00000
-15.41542   0.00000  40.00000
-15.36537   0.00000  40.00000
-15.31532   0.00000  40.00000
-15.26527   0.00000  40.00000
-15.21522   0.00000  40.00000
-15.16517   0.00000  40.00000
-15.11512   0.00000  40.00000
-15.06507   0.00000  40.00000
-15.01502   0.00000  40.00000
-14.96496   0.00000  40.00000
-14.91491   0.00000  40.00000
-14.86486   0.00000  40.00000
-14.81481   0.00000  40.00000
-14.76476   0.00000  40.00000
-14.71471   0.00000  40.00000
-14.66466   0.00000  40.00000
-14.61461   0.00000  40.00000
-14.56456   0.00000  40.00000
-14.51451   0.00000  40.00000
-14.46446   0.00000  40.00000
-14.41441   0.00000  40.00000
-14.36436   0.00000  40.00000
-14.31431   0.00000  40.00000
-14.26426   0.00000  40.00000
-14.21421   0.00000  40.00000
-14.16416   0.00000  40.00000
-14.11411   0.00000  40.00000
-14.06406   0.00000  40.00000
-14.01401   0.00000  40.00000
-13.96396   0.00000  40.00000
-13.91391   0.00000  40.00000
-13.86386   0.00000  40.00000
-13.81381   0.00000  40.00000
-13.76376   0.00000  40.00000
-13.71371   0.00000  40.00000
-13.66366   0.00000  40.00000
-13.61361   0.00000  40.00000
-13.56356   0.00000  40.00000
-13.51351   0.00000  40.00000
-13.46346   0.00002  40.00000
-13.41341   0.00010  40.00001
-13.36336   0.00039  40.00003
-13.31331   0.00135  40.00009
-13.26326   0.00409  40.00030
-13.21321   0.01111  40.00085
-13.16316   0.02695  40.00220
-13.11311   0.05863  40.00514
-13.06306   0.11468  40.01088
-13.01301   0.20247  40.02101
-12.96296   0.32426  40.03724
-12.91291   0.47403  40.06097
-12.86286   0.63748  40.09287
-12.81281   0.79620  40.13272
-12.76276   0.93401  40.17947
-12.71271   1.04204  40.23162
-12.66266   1.12003  40.28768
-12.61261   1.17396  40.34644
-12.56256   1.21213  40.40710
-12.51251   1.24205  40.46927
-12.46246   1.26903  40.53278
-12.41241   1.29629  40.59766
-12.36236   1.32562  40.66401
-12.31231   1.35811  40.73198
-12.26226   1.39462  40.80178
-12.21221   1.43616  40.87366
-12.16216   1.48415  40.94795
-12.11211   1.54108  41.02508
-12.06206   1.61160  41.10574
-12.01201   1.70458  41.19105
-11.96196   1.83591  41.28294
-11.91191   2.03059  41.38457
-11.86186   2.32137  41.50076
-11.81181   2.73994  41.63789
-11.76176   3.29918  41.80301
-11.71171   3.97101  42.00176
-11.66166   4.67144  42.23557
-11.61161   5.26687  42.49918
-11.56156   5.60750  42.77983
-11.51151   5.57862  43.05904
-11.46146   5.14709  43.31665
-11.41141   4.37923  43.53584
-11.36136   3.41960  43.70699
-11.31131   2.44024  43.82912
-11.26126   1.58498  43.90845
-11.21121   0.93343  43.95517
-11.16116   0.49667  43.98003
-11.11111   0.23799  43.99194
-11.06106   0.10239  43.99706
-11.01101   0.03946  43.99904
-10.96096   0.01359  43.99972
-10.91091   0.00418  43.99993
-10.86086   0.00114  43.99998
-10.81081   0.00028  44.00000
-10.76076   0.00006  44.00000
-10.71071   0.00001  44.00000
-10.66066   0.00000  44.00000
-10.61061   0.00000  44.00000
-10.56056   0.00000  44.00000
-10.51051   0.00000  44.00000
-10.46046   0.00000  44.00000
-10.41041   0.00000  44.00000
-10.36036   0.00000  44.00000
-10.31031   0.00000  44.00000
-10.26026   0.00000  44.00000
-10.21021   0.00000  44.00000
-10.16016   0.00000  44.00000
-10.11011   0.00000  44.00000
-10.06006   0.00000  44.00000
-10.01001   0.00000  44.00000
 -9.95996   0.00000  44.00000
 -9.90991   0.00000  44.00000
 -9.85986   0.00000  44.00000
 -9.80981   0.00000  44.00000
 -9.75976   0.00000  44.00000
 -9.70971   0.00000  44.00000
 -9.65966   0.00000  44.00000
 -9.60961   0.00000  44.00000
 -9.55956   0.00000  44.00000
 -9.50951   0.00000  44.00000
 -9.45946   0.00000  44.00000
 -9.40941   0.00000  44.00000
 -9.35936   0.00000  44.00000
 -9.30931   0.00000  44.00000
 -9.25926   0.00000  44.00000
 -9.20921   0.00000  44.00000
 -9.15916   0.00000  44.00000
 -9.10911   0.00000  44.00000
 -9.05906   0.00000  44.00000
 -9.00901   0.00000  44.00000
 -8.95896   0.00000  44.00000
 -8.90891   0.00000  44.00000
 -8.85886   0.00000  44.00000
 -8.80881   0.00001  44.00000
 -8.75876   0.00005  44.00000
 -8.70871   0.00020  44.00001
 -8.65866   0.00078  44.00005
 -8.60861   0.00266  44.00019
 -8.55856   0.00816  44.00059
 -8.50851   0.02230  44.00171
 -8.45846   0.05454  44.00444
 -8.40841   0.11965  44.01043
 -8.35836   0.23617  44.02225
 -8.30831   0.42119  44.04333
 -8.25826   0.68221  44.07747
 -8.20821   1.01028  44.12804
 -8.15816   1.37951  44.19708
 -8.10811   1.75494  44.28492
 -8.05806   2.10523  44.39028
 -8.00801   2.41246  44.51103
 -7.95796   2.67321  44.64482
 -7.90791   2.89120  44.78953
 -7.85786   3.06779  44.94307
 -7.80781   3.19722  45.10309
 -7.75776   3.27010  45.26676
 -7.70771   3.28206  45.43103
 -7.65766   3.24126  45.59325
 -7.60761   3.16891  45.75186
 -7.55756   3.09222  45.90662
 -7.50751   3.03357  46.05845
 -7.45746   3.00114  46.20866
 -7.40741   2.98519  46.35807
 -7.35736   2.96135  46.50629
 -7.30731   2.90001  46.65143
 -7.25726   2.77828  46.79048
 -7.20721   2.58949  46.92009
 -7.15716   2.34582  47.03750
 -7.10711   2.07337  47.14127
 -7.05706   1.80259  47.23149
 -7.00701   1.55853  47.30949
 -6.95696   1.35478  47.37730
 -6.90691   1.19277  47.43700
 -6.85686   1.06533  47.49032
 -6.80681   0.96199  47.53847
 -6.75676   0.87355  47.58219
 -6.70671   0.79464  47.62196
 -6.65666   0.72392  47.65819
 -6.60661   0.66250  47.69135
 -6.55656   0.61168  47.72196
 -6.50651   0.57157  47.75057
 -6.45646   0.54081  47.77764
 -6.40641   0.51717  47.80352
 -6.35636   0.49821  47.82846
 -6.30631   0.48158  47.85256
 -6.25626   0.46483  47.87583
 -6.20621   0.44517  47.89811
 -6.15616   0.41933  47.91909
 -6.10611   0.38420  47.93832
 -6.05606   0.33805  47.95524
 -6.00601   0.28198  47.96936
 -5.95596   0.22045  47.98039
 -5.90591   0.16043  47.98842
 -5.85586   0.10954  47.99390
 -5.80581   0.07428  47.99762
 -5.75576   0.05937  48.00059
 -5.70571   0.06822  48.00401
 -5.65566   0.10329  48.00918
 -5.60561   0.16526  48.01745
 -5.55556   0.25123  48.03002
 -5.50551   0.35355  48.04772
 -5.45546   0.46063  48.07077
 -5.40541   0.56018  48.09881
 -5.35536   0.64308  48.13099
 -5.30531   0.70564  48.16631
 -5.25526   0.74935  48.20382
 -5.20521   0.77872  48.24279
 -5.15516   0.79885  48.28277
 -5.10511   0.81385  48.32351
 -5.05506   0.82640  48.36487
 -5.00501   0.83794  48.40681
 -4.95495   0.84910  48.44930
 -4.90490   0.86010  48.49235
 -4.85485   0.87116  48.53595
 -4.80480   0.88247  48.58012
 -4.75475   0.89406  48.62487
 -4.70470   0.90582  48.67021
 -4.65465   0.91785  48.71614
 -4.60460   0.93074  48.76273
 -4.55455   0.94556  48.81005
 -4.50450   0.96413  48.85831
 -4.45445   0.99031  48.90787
 -4.40440   1.03199  48.95952
 -4.35435   1.10259  49.01471
 -4.30430   1.22087  49.07581
 -4.25425   1.40827  49.14630
 -4.20420   1.68297  49.23053
 -4.15415   2.05085  49.33317
 -4.10410   2.49595  49.45810
 -4.05405   2.97682  49.60709
 -4.00400   3.43468  49.77899
 -3.95395   3.81318  49.96984
 -3.90390   4.07951  50.17402
 -3.85385   4.23355  50.38591
 -3.80380   4.29939  50.60110
 -3.75375   4.30611  50.81662
 -3.70370   4.27153  51.03041
 -3.65365   4.19831  51.24053
 -3.60360   4.08176  51.44483
 -3.55355   3.92109  51.64108
 -3.50350   3.72593  51.82756
 -3.45345   3.51510  52.00349
 -3.40340   3.31019  52.16917
 -3.35335   3.12865  52.32576
 -3.30330   2.97978  52.47489
 -3.25325   2.86506  52.61829
 -3.20320   2.78198  52.75753
 -3.15315   2.72873  52.89410
 -3.10310   2.70713  53.02959
 -3.05305   2.72192  53.16583
 -3.00300   2.77762  53.30485
 -2.95295   2.87542  53.44876
 -2.90290   3.01237  53.59953
 -2.85285   3.18310  53.75885
 -2.80280   3.38212  53.92812
 -2.75275   3.60440  54.10852
 -2.70270   3.84337  54.30088
 -2.65265   4.08735  54.50545
 -2.60260   4.31665  54.72150
 -2.55255   4.50385  54.94692
 -2.50250   4.61914  55.17811
 -2.45245   4.63913  55.41030
 -2.40240   4.55479  55.63826
 -2.35235   4.37370  55.85717
 -2.30230   4.11547  56.06315
 -2.25225   3.80408  56.25354
 -2.20220   3.46236  56.42683
 -2.15215   3.11142  56.58256
 -2.10210   2.77293  56.72135
 -2.05205   2.47046  56.84499
 -2.00200   2.22745  56.95648
 -1.95195   2.06314  57.05974
 -1.90190   1.98887  57.15928
 -1.85185   2.00584  57.25967
 -1.80180   2.10316  57.36493
 -1.75175   2.25514  57.47780
 -1.70170   2.42034  57.59894
 -1.65165   2.54759  57.72645
 -1.60160   2.59162  57.85616
 -1.55155   2.53249  57.98291
 -1.50150   2.38600  58.10233
 -1.45145   2.19628  58.21225
 -1.40140   2.01480  58.31310
 -1.35135   1.87937  58.40716
 -1.30130   1.80474  58.49749
 -1.25125   1.78605  58.58688
 -1.20120   1.80887  58.67741
 -1.15115   1.85926  58.77047
 -1.10110   1.92977  58.86705
 -1.05105   2.01906  58.96811
 -1.00100   2.12482  59.07445
 -0.95095   2.23349  59.18624
 -0.90090   2.31477  59.30209
 -0.85085   2.32758  59.41859
 -0.80080   2.23697  59.53055
 -0.75075   2.03285  59.63229
 -0.70070   1.73862  59.71931
 -0.65065   1.40323  59.78955
 -0.60060   1.08080  59.84364
 -0.55055   0.81008  59.88418
 -0.50050   0.60480  59.91445
 -0.45045   0.45761  59.93736
 -0.40040   0.35153  59.95495
 -0.35035   0.27066  59.96850
 -0.30030   0.20507  59.97876
 -0.25025   0.15053  59.98630
 -0.20020   0.10595  59.99160
 -0.15015   0.07122  59.99516
 -0.10010   0.04636  59.99748
 -0.05005   0.03174  59.99907
 -0.00000   0.02903  60.00053
  0.05005   0.04240  60.00265
  0.10010   0.07932  60.00662
  0.15015   0.15015  60.01413
  0.20020   0.26578  60.02743
  0.25025   0.43386  60.04915
  0.30030   0.65567  60.08197
  0.35035   0.92619  60.12832
  0.40040   1.23828  60.19030
  0.45045   1.58876  60.26981
  0.50050   1.98120  60.36897
  0.55055   2.42064  60.49013
  0.60060   2.89949  60.63525
  0.65065   3.38250  60.80454
  0.70070   3.80449  60.99496
  0.75075   4.09078  61.19970
  0.80080   4.19362  61.40959
  0.85085   4.12096  61.61584
  0.90090   3.93448  61.81277
  0.95095   3.71642  61.99877
  1.00100   3.52908  62.17540
  1.05105   3.39443  62.34529
  1.10110   3.30128  62.51052
  1.15115   3.22675  62.67202
  1.20120   3.15408  62.82989
  1.25125   3.07857  62.98397
  1.30130   3.00436  63.13434
  1.35135   2.93852  63.28141
  1.40140   2.88682  63.42590
  1.45145   2.85272  63.56867
  1.50150   2.83778  63.71070
  1.55155   2.84159  63.85293
  1.60160   2.86047  63.99609
  1.65165   2.88697  64.14059
  1.70170   2.91217  64.28634
  1.75175   2.93040  64.43301
  1.80180   2.94336  64.58032
  1.85185   2.96093  64.72852
  1.90190   2.99735  64.87853
  1.95195   3.06398  65.03189
  2.00200   3.16192  65.19014
  2.05205   3.27838  65.35422
  2.10210   3.38969  65.52388
  2.15215   3.46973  65.69754
  2.20220   3.49920  65.87267
  2.25225   3.47122  66.04641
  2.30230   3.39167  66.21616
  2.35235   3.27638  66.38014
  2.40240   3.14740  66.53767
  2.45245   3.02916  66.68928
  2.50250   2.94350  66.83660
  2.55255   2.90390  66.98194
  2.60260   2.91234  67.12771
  2.65265   2.96206  67.27596
  2.70270   3.04627  67.42842
  2.75275   3.16605  67.58689
  2.80280   3.33036  67.75357
  2.85285   3.54638  67.93107
  2.90290   3.80756  68.12164
  2.95295   4.08875  68.32628
  3.00300   4.35278  68.54413
  3.05305   4.56528  68.77263
  3.10310   4.70964  69.00835
  3.15315   4.79398  69.24828
  3.20320   4.84388  69.49072
  3.25325   4.88145  69.73504
  3.30330   4.90039  69.98030
  3.35335   4.85513  70.22330
  3.40340   4.67730  70.45740
  3.45345   4.31494  70.67336
  3.50350   3.76986  70.86205
  3.55355   3.10672  71.01754
  3.60360   2.42692  71.13900
  3.65365   1.82548  71.23037
  3.70370   1.35814  71.29834
  3.75375   1.03417  71.35010
  3.80380   0.83044  71.39167
  3.85385   0.71193  71.42730
  3.90390   0.64653  71.45966
  3.95395   0.61066  71.49022
  4.00400   0.58889  71.51970
  4.05405   0.57213  71.54833
  4.10410   0.55632  71.57618
  4.15415   0.54123  71.60326
  4.20420   0.52841  71.62971
  4.25425   0.51866  71.65567
  4.30430   0.51055  71.68122
  4.35435   0.50118  71.70631
  4.40440   0.48838  71.73075
  4.45445   0.47233  71.75439
  4.50450   0.45532  71.77718
  4.55455   0.43990  71.79920
  4.60460   0.42723  71.82058
  4.65465   0.41677  71.84144
  4.70470   0.40717  71.86182
  4.75475   0.39713  71.88170
  4.80480   0.38525  71.90098
  4.85485   0.36943  71.91947
  4.90490   0.34684  71.93683
  4.95495   0.31490  71.95259
  5.00501   0.27285  71.96624
  5.05506   0.22279  71.97739
  5.10511   0.16949  71.98588
  5.15516   0.11897  71.99183
  5.20521   0.07642  71.99566
  5.25526   0.04462  71.99789
  5.30531   0.02355  71.99907
  5.35536   0.01119  71.99963
  5.40541   0.00477  71.99987
  5.45546   0.00182  71.99996
  5.50551   0.00062  71.99999
  5.55556   0.00019  72.00000
  5.60561   0.00005  72.00000
  5.65566   0.00001  72.00000
  5.70571   0.00000  72.00000
  5.75576   0.00000  72.00000
  5.80581   0.00000  72.00000
  5.85586   0.00000  72.00000
  5.90591   0.00000  72.00000
  5.95596   0.00000  72.00000
  6.00601   0.00000  72.00000
  6.05606   0.00000  72.00000
  6.10611   0.00000  72.00000
  6.15616  -0.00000  72.00000
  6.20621  -0.00000  72.00000
  6.25626   0.00000  72.00000
  6.30631   0.00000  72.00000
  6.35636   0.00000  72.00000
  6.40641   0.00000  72.00000
  6.45646   0.00000  72.00000
  6.50651   0.00000  72.00000
  6.55656   0.00000  72.00000
  6.60661   0.00000  72.00000
  6.65666   0.00000  72.00000
  6.70671   0.00000  72.00000
  6.75676   0.00000  72.00000
  6.80681   0.00000  72.00000
  6.85686   0.00000  72.00000
  6.90691   0.00000  72.00000
  6.95696   0.00000  72.00000
  7.00701   0.00000  72.00000
  7.05706   0.00000  72.00000
  7.10711   0.00000  72.00000
  7.15716   0.00000  72.00000
  7.20721   0.00000  72.00000
  7.25726   0.00000  72.00000
  7.30731   0.00000  72.00000
  7.35736   0.00000  72.00000
  7.40741   0.00000  72.00000
  7.45746   0.00000  72.00000
  7.50751   0.00000  72.00000
  7.55756   0.00000  72.00000
  7.60761   0.00000  72.00000
  7.65766   0.00000  72.00000
  7.70771   0.00000  72.00000
  7.75776   0.00000  72.00000
  7.80781   0.00000  72.00000
  7.85786   0.00000  72.00000
  7.90791   0.00000  72.00000
  7.95796   0.00000  72.00000
  8.00801   0.00000  72.00000
  8.05806   0.00000  72.00000
  8.10811   0.00000  72.00000
  8.15816   0.00000  72.00000
  8.20821   0.00000  72.00000
  8.25826   0.00000  72.00000
  8.30831   0.00000  72.00000
  8.35836   0.00000  72.00000
  8.40841   0.00000  72.00000
  8.45846   0.00000  72.00000
  8.50851   0.00000  72.00000
  8.55856   0.00000  72.00000
  8.60861   0.00000  72.00000
  8.65866   0.00000  72.00000
  8.70871   0.00000  72.00000
  8.75876   0.00000  72.00000
  8.80881   0.00000  72.00000
  8.85886   0.00000  72.00000
  8.90891   0.00000  72.00000
  8.95896   0.00000  72.00000
  9.00901   0.00000  72.00000
  9.05906   0.00000  72.00000
  9.10911   0.00000  72.00000
  9.15916   0.00000  72.00000
  9.20921   0.00000  72.00000
  9.25926   0.00000  72.00000
  9.30931   0.00000  72.00000
  9.35936   0.00000  72.00000
  9.40941   0.00000  72.00000
  9.45946   0.00000  72.00000
  9.50951   0.00000  72.00000
  9.55956   0.00000  72.00000
  9.60961   0.00000  72.00000
  9.65966   0.00000  72.00000
  9.70971   0.00000  72.00000
  9.75976   0.00000  72.00000
  9.80981   0.00000  72.00000
  9.85986   0.00000  72.00000
  9.90991   0.00000  72.00000
  9.95996   0.00000  72.00000
 10.01001   0.00000  72.00000
 10.06006   0.00000  72.00000
 10.11011   0.00000  72.00000
 10.16016   0.00000  72.00000
 10.21021   0.00000  72.00000
 10.26026   0.00000  72.00000
 10.31031   0.00000  72.00000
 10.36036   0.00000  72.00000
 10.41041   0.00000  72.00000
 10.46046   0.00000  72.00000
 10.51051   0.00000  72.00000
 10.56056   0.00000  72.00000
 10.61061   0.00000  72.00000
 10.66066   0.00000  72.00000
 10.71071   0.00000  72.00000
 10.76076   0.00000  72.00000
 10.81081   0.00000  72.00000
 10.86086   0.00000  72.00000
 10.91091   0.00000  72.00000
 10.96096   0.00000  72.00000
 11.01101   0.00000  72.00000
 11.06106   0.00000  72.00000
 11.11111   0.00000  72.00000
 11.16116   0.00000  72.00000
 11.21121   0.00000  72.00000
 11.26126   0.00000  72.00000
 11.31131   0.00000  72.00000
 11.36136   0.00000  72.00000
 11.41141   0.00000  72.00000
 11.46146   0.00000  72.00000
 11.51151   0.00000  72.00000
 11.56156   0.00000  72.00000
 11.61161   0.00000  72.00000
 11.66166   0.00000  72.00000
 11.71171   0.00000  72.00000
 11.76176   0.00000  72.00000
 11.81181   0.00000  72.00000
 11.86186   0.00000  72.00000
 11.91191   0.00000  72.00000
 11.96196   0.00000  72.00000
 12.01201   0.00000  72.00000
 12.06206   0.00000  72.00000
 12.11211   0.00000  72.00000
 12.16216   0.00000  72.00000
 12.21221   0.00000  72.00000
 12.26226   0.00000  72.00000
 12.31231   0.00000  72.00000
 12.36236   0.00000  72.00000
 12.41241   0.00000  72.00000
 12.46246   0.00000  72.00000
 12.51251   0.00000  72.00000
 12.56256   0.00000  72.00000
 12.61261   0.00000  72.00000
 12.66266   0.00000  72.00000
 12.71271   0.00000  72.00000
 12.76276   0.00000  72.00000
 12.81281   0.00000  72.00000
 12.86286   0.00000  72.00000
 12.91291   0.00000  72.00000
 12.96296   0.00000  72.00000
 13.01301   0.00000  72.00000
 13.06306   0.00000  72.00000
 13.11311   0.00000  72.00000
 13.16316   0.00000  72.00000
 13.21321   0.00000  72.00000
 13.26326   0.00000  72.00000
 13.31331   0.00000  72.00000
 13.36336   0.00000  72.00000
 13.41341   0.00000  72.00000
 13.46346   0.00000  72.00000
 13.51351   0.00000  72.00000
 13.56356   0.00000  72.00000
 13.61361   0.00000  72.00000
 13.66366   0.00000  72.00000
 13.71371   0.00000  72.00000
 13.76376   0.00000  72.00000
 13.81381   0.00000  72.00000
 13.86386   0.00000  72.00000
 13.91391   0.00000  72.00000
 13.96396   0.00000  72.00000
 14.01401   0.00000  72.00000
 14.06406   0.00000  72.00000
 14.11411   0.00000  72.00000
 14.16416   0.00000  72.00000
 14.21421   0.00000  72.00000
 14.26426   0.00000  72.00000
 14.31431   0.00000  72.00000
 14.36436   0.00000  72.00000
 14.41441   0.00000  72.00000
 14.46446   0.00000  72.00000
 14.51451   0.00000  72.00000
 14.56456   0.00000  72.00000
 14.61461   0.00000  72.00000
 14.66466   0.00000  72.00000
 14.71471   0.00000  72.00000
 14.76476   0.00000  72.00000
 14.81481   0.00000  72.00000
 14.86486   0.00000  72.00000
 14.91491   0.00000  72.00000
 14.96496   0.00000  72.00000
 15.01502   0.00000  72.00000
 15.06507   0.00000  72.00000
 15.11512   0.00000  72.00000
 15.16517   0.00000  72.00000
 15.21522   0.00000  72.00000
 15.26527   0.00000  72.00000
 15.31532   0.00000  72.00000
 15.36537   0.00000  72.00000
 15.41542   0.00000  72.00000
 15.46547   0.00000  72.00000
 15.51552   0.00000  72.00000
 15.56557   0.00000  72.00000
 15.61562   0.00000  72.00000
 15.66567   0.00000  72.00000
 15.71572   0.00000  72.00000
 15.76577   0.00000  72.00000
 15.81582   0.00000  72.00000
 15.86587   0.00000  72.00000
 15.91592   0.00000  72.00000
 15.96597   0.00000  72.00000
 16.01602   0.00000  72.00000
 16.06607   0.00000  72.00000
 16.11612   0.00000  72.00000
 16.16617   0.00000  72.00000
 16.21622   0.00000  72.00000
 16.26627   0.00000  72.00000
 16.31632   0.00000  72.00000
 16.36637   0.00000  72.00000
 16.41642   0.00000  72.00000
 16.46647   0.00000  72.00000
 16.51652   0.00000  72.00000
 16.56657   0.00000  72.00000
 16.61662   0.00000  72.00000
 16.66667   0.00000  72.00000
 16.71672   0.00000  72.00000
 16.76677   0.00000  72.00000
 16.81682   0.00000  72.00000
 16.86687   0.00000  72.00000
 16.91692   0.00000  72.00000
 16.96697   0.00000  72.00000
 17.01702   0.00000  72.00000
 17.06707   0.00000  72.00000
 17.11712   0.00000  72.00000
 17.16717   0.00000  72.00000
 17.21722   0.00000  72.00000
 17.26727   0.00000  72.00000
 17.31732   0.00000  72.00000
 17.36737   0.00000  72.00000
 17.41742   0.00000  72.00000
 17.46747   0.00000  72.00000
 17.51752   0.00000  72.00000
 17.56757   0.00000  72.00000
 17.61762   0.00000  72.00000
 17.66767   0.00000  72.00000
 17.71772   0.00000  72.00000
 17.76777   0.00000  72.00000
 17.81782   0.00000  72.00000
 17.86787   0.00000  72.00000
 17.91792   0.00000  72.00000
 17.96797   0.00000  72.00000
 18.01802   0.00000  72.00000
 18.06807   0.00000  72.00000
 18.11812   0.00000  72.00000
 18.16817   0.00000  72.00000
 18.21822   0.00000  72.00000
 18.26827   0.00000  72.00000
 18.31832   0.00000  72.00000
 18.36837   0.00000  72.00000
 18.41842   0.00000  72.00000
 18.46847   0.00000  72.00000
 18.51852   0.00000  72.00000
 18.56857   0.00000  72.00000
 18.61862   0.00000  72.00000
 18.66867   0.00000  72.00000
 18.71872   0.00000  72.00000
 18.76877   0.00000  72.00000
 18.81882   0.00000  72.00000
 18.86887   0.00000  72.00000
 18.91892   0.00000  72.00000
 18.96897   0.00000  72.00000
 19.01902   0.00000  72.00000
 19.06907   0.00000  72.00000
 19.11912   0.00000  72.00000
 19.16917   0.00000  72.00000
 19.21922   0.00000  72.00000
 19.26927   0.00000  72.00000
 19.31932   0.00000  72.00000
 19.36937   0.00000  72.00000
 19.41942   0.00000  72.00000