  COHP#       atomMU       atomNU     distance     translation      ICOHP (at) eF   for spin  1
      1          Sn1          Te3      3.10802       0   0   0           -1.70401 
      1       Sn1_5s       Te3_5s      3.10802       0   0   0            0.00672 
      1       Sn1_5s     Te3_5p_y      3.10802       0   0   0           -0.06805 
      1       Sn1_5s     Te3_5p_z      3.10802       0   0   0           -0.00196 
      1       Sn1_5s     Te3_5p_x      3.10802       0   0   0           -0.07238 
      1       Sn1_5s    Te3_4d_xy      3.10802       0   0   0            0.00026 
      1       Sn1_5s    Te3_4d_yz      3.10802       0   0   0           -0.00002 
      1       Sn1_5s   Te3_4d_z^2      3.10802       0   0   0            0.00008 
      1       Sn1_5s    Te3_4d_xz      3.10802       0   0   0           -0.00002 
      1       Sn1_5s Te3_4d_x^2-y^2      3.10802       0   0   0           -0.00000 
      1     Sn1_5p_y       Te3_5s      3.10802       0   0   0           -0.18117 
      1     Sn1_5p_y     Te3_5p_y      3.10802       0   0   0           -0.15169 
      1     Sn1_5p_y     Te3_5p_z      3.10802       0   0   0           -0.00130 
      1     Sn1_5p_y     Te3_5p_x      3.10802       0   0   0           -0.39785 
      1     Sn1_5p_y    Te3_4d_xy      3.10802       0   0   0           -0.00365 
      1     Sn1_5p_y    Te3_4d_yz      3.10802       0   0   0           -0.00003 
      1     Sn1_5p_y   Te3_4d_z^2      3.10802       0   0   0           -0.00127 
      1     Sn1_5p_y    Te3_4d_xz      3.10802       0   0   0           -0.00007 
      1     Sn1_5p_y Te3_4d_x^2-y^2      3.10802       0   0   0           -0.00096 
      1     Sn1_5p_z       Te3_5s      3.10802       0   0   0           -0.00791 
      1     Sn1_5p_z     Te3_5p_y      3.10802       0   0   0           -0.00414 
      1     Sn1_5p_z     Te3_5p_z      3.10802       0   0   0           -0.05138 
      1     Sn1_5p_z     Te3_5p_x      3.10802       0   0   0           -0.00462 
      1     Sn1_5p_z    Te3_4d_xy      3.10802       0   0   0           -0.00002 
      1     Sn1_5p_z    Te3_4d_yz      3.10802       0   0   0           -0.00078 
      1     Sn1_5p_z   Te3_4d_z^2      3.10802       0   0   0            0.00004 
      1     Sn1_5p_z    Te3_4d_xz      3.10802       0   0   0           -0.00080 
      1     Sn1_5p_z Te3_4d_x^2-y^2      3.10802       0   0   0           -0.00000 
      1     Sn1_5p_x       Te3_5s      3.10802       0   0   0           -0.18268 
      1     Sn1_5p_x     Te3_5p_y      3.10802       0   0   0           -0.39160 
      1     Sn1_5p_x     Te3_5p_z      3.10802       0   0   0           -0.00155 
      1     Sn1_5p_x     Te3_5p_x      3.10802       0   0   0           -0.17303 
      1     Sn1_5p_x    Te3_4d_xy      3.10802       0   0   0           -0.00383 
      1     Sn1_5p_x    Te3_4d_yz      3.10802       0   0   0           -0.00007 
      1     Sn1_5p_x   Te3_4d_z^2      3.10802       0   0   0           -0.00124 
      1     Sn1_5p_x    Te3_4d_xz      3.10802       0   0   0           -0.00003 
      1     Sn1_5p_x Te3_4d_x^2-y^2      3.10802       0   0   0           -0.00072 
      1    Sn1_4d_xy       Te3_5s      3.10802       0   0   0            0.00031 
      1    Sn1_4d_xy     Te3_5p_y      3.10802       0   0   0           -0.00207 
      1    Sn1_4d_xy     Te3_5p_z      3.10802       0   0   0           -0.00002 
      1    Sn1_4d_xy     Te3_5p_x      3.10802       0   0   0           -0.00203 
      1    Sn1_4d_xy    Te3_4d_xy      3.10802       0   0   0            0.00000 
      1    Sn1_4d_xy    Te3_4d_yz      3.10802       0   0   0           -0.00000 
      1    Sn1_4d_xy   Te3_4d_z^2      3.10802       0   0   0            0.00000 
      1    Sn1_4d_xy    Te3_4d_xz      3.10802       0   0   0           -0.00000 
      1    Sn1_4d_xy Te3_4d_x^2-y^2      3.10802       0   0   0            0.00000 
      1    Sn1_4d_yz       Te3_5s      3.10802       0   0   0           -0.00001 
      1    Sn1_4d_yz     Te3_5p_y      3.10802       0   0   0           -0.00008 
      1    Sn1_4d_yz     Te3_5p_z      3.10802       0   0   0           -0.00002 
      1    Sn1_4d_yz     Te3_5p_x      3.10802       0   0   0           -0.00035 
      1    Sn1_4d_yz    Te3_4d_xy      3.10802       0   0   0           -0.00000 
      1    Sn1_4d_yz    Te3_4d_yz      3.10802       0   0   0            0.00000 
      1    Sn1_4d_yz   Te3_4d_z^2      3.10802       0   0   0           -0.00000 
      1    Sn1_4d_yz    Te3_4d_xz      3.10802       0   0   0            0.00000 
      1    Sn1_4d_yz Te3_4d_x^2-y^2      3.10802       0   0   0           -0.00000 
      1   Sn1_4d_z^2       Te3_5s      3.10802       0   0   0           -0.00001 
      1   Sn1_4d_z^2     Te3_5p_y      3.10802       0   0   0           -0.00062 
      1   Sn1_4d_z^2     Te3_5p_z      3.10802       0   0   0            0.00012 
      1   Sn1_4d_z^2     Te3_5p_x      3.10802       0   0   0           -0.00068 
      1   Sn1_4d_z^2    Te3_4d_xy      3.10802       0   0   0            0.00000 
      1   Sn1_4d_z^2    Te3_4d_yz      3.10802       0   0   0            0.00000 
      1   Sn1_4d_z^2   Te3_4d_z^2      3.10802       0   0   0            0.00000 
      1   Sn1_4d_z^2    Te3_4d_xz      3.10802       0   0   0            0.00000 
      1   Sn1_4d_z^2 Te3_4d_x^2-y^2      3.10802       0   0   0           -0.00000 
      1    Sn1_4d_xz       Te3_5s      3.10802       0   0   0           -0.00001 
      1    Sn1_4d_xz     Te3_5p_y      3.10802       0   0   0           -0.00033 
      1    Sn1_4d_xz     Te3_5p_z      3.10802       0   0   0           -0.00005 
      1    Sn1_4d_xz     Te3_5p_x      3.10802       0   0   0           -0.00009 
      1    Sn1_4d_xz    Te3_4d_xy      3.10802       0   0   0           -0.00000 
      1    Sn1_4d_xz    Te3_4d_yz      3.10802       0   0   0            0.00000 
      1    Sn1_4d_xz   Te3_4d_z^2      3.10802       0   0   0           -0.00000 
      1    Sn1_4d_xz    Te3_4d_xz      3.10802       0   0   0            0.00000 
      1    Sn1_4d_xz Te3_4d_x^2-y^2      3.10802       0   0   0           -0.00000 
      1 Sn1_4d_x^2-y^2       Te3_5s      3.10802       0   0   0           -0.00000 
      1 Sn1_4d_x^2-y^2     Te3_5p_y      3.10802       0   0   0           -0.00024 
      1 Sn1_4d_x^2-y^2     Te3_5p_z      3.10802       0   0   0            0.00000 
      1 Sn1_4d_x^2-y^2     Te3_5p_x      3.10802       0   0   0           -0.00008 
      1 Sn1_4d_x^2-y^2    Te3_4d_xy      3.10802       0   0   0            0.00000 
      1 Sn1_4d_x^2-y^2    Te3_4d_yz      3.10802       0   0   0           -0.00000 
      1 Sn1_4d_x^2-y^2   Te3_4d_z^2      3.10802       0   0   0           -0.00000 
      1 Sn1_4d_x^2-y^2    Te3_4d_xz      3.10802       0   0   0            0.00000 
      1 Sn1_4d_x^2-y^2 Te3_4d_x^2-y^2      3.10802       0   0   0            0.00000 
      2          Sn1          Te3      3.10805       1   0   0           -1.70397 
      2       Sn1_5s       Te3_5s      3.10805       1   0   0            0.00672 
      2       Sn1_5s     Te3_5p_y      3.10805       1   0   0           -0.06805 
      2       Sn1_5s     Te3_5p_z      3.10805       1   0   0           -0.00196 
      2       Sn1_5s     Te3_5p_x      3.10805       1   0   0           -0.07247 
      2       Sn1_5s    Te3_4d_xy      3.10805       1   0   0            0.00026 
      2       Sn1_5s    Te3_4d_yz      3.10805       1   0   0           -0.00002 
      2       Sn1_5s   Te3_4d_z^2      3.10805       1   0   0            0.00008 
      2       Sn1_5s    Te3_4d_xz      3.10805       1   0   0           -0.00002 
      2       Sn1_5s Te3_4d_x^2-y^2      3.10805       1   0   0           -0.00000 
      2     Sn1_5p_y       Te3_5s      3.10805       1   0   0           -0.18117 
      2     Sn1_5p_y     Te3_5p_y      3.10805       1   0   0           -0.15170 
      2     Sn1_5p_y     Te3_5p_z      3.10805       1   0   0           -0.00130 
      2     Sn1_5p_y     Te3_5p_x      3.10805       1   0   0           -0.39786 
      2     Sn1_5p_y    Te3_4d_xy      3.10805       1   0   0           -0.00365 
      2     Sn1_5p_y    Te3_4d_yz      3.10805       1   0   0           -0.00003 
      2     Sn1_5p_y   Te3_4d_z^2      3.10805       1   0   0           -0.00127 
      2     Sn1_5p_y    Te3_4d_xz      3.10805       1   0   0           -0.00007 
      2     Sn1_5p_y Te3_4d_x^2-y^2      3.10805       1   0   0           -0.00096 
      2     Sn1_5p_z       Te3_5s      3.10805       1   0   0           -0.00791 
      2     Sn1_5p_z     Te3_5p_y      3.10805       1   0   0           -0.00415 
      2     Sn1_5p_z     Te3_5p_z      3.10805       1   0   0           -0.05138 
      2     Sn1_5p_z     Te3_5p_x      3.10805       1   0   0           -0.00464 
      2     Sn1_5p_z    Te3_4d_xy      3.10805       1   0   0           -0.00002 
      2     Sn1_5p_z    Te3_4d_yz      3.10805       1   0   0           -0.00078 
      2     Sn1_5p_z   Te3_4d_z^2      3.10805       1   0   0            0.00004 
      2     Sn1_5p_z    Te3_4d_xz      3.10805       1   0   0           -0.00080 
      2     Sn1_5p_z Te3_4d_x^2-y^2      3.10805       1   0   0           -0.00000 
      2     Sn1_5p_x       Te3_5s      3.10805       1   0   0           -0.18259 
      2     Sn1_5p_x     Te3_5p_y      3.10805       1   0   0           -0.39154 
      2     Sn1_5p_x     Te3_5p_z      3.10805       1   0   0           -0.00156 
      2     Sn1_5p_x     Te3_5p_x      3.10805       1   0   0           -0.17302 
      2     Sn1_5p_x    Te3_4d_xy      3.10805       1   0   0           -0.00382 
      2     Sn1_5p_x    Te3_4d_yz      3.10805       1   0   0           -0.00007 
      2     Sn1_5p_x   Te3_4d_z^2      3.10805       1   0   0           -0.00124 
      2     Sn1_5p_x    Te3_4d_xz      3.10805       1   0   0           -0.00003 
      2     Sn1_5p_x Te3_4d_x^2-y^2      3.10805       1   0   0           -0.00072 
      2    Sn1_4d_xy       Te3_5s      3.10805       1   0   0            0.00031 
      2    Sn1_4d_xy     Te3_5p_y      3.10805       1   0   0           -0.00207 
      2    Sn1_4d_xy     Te3_5p_z      3.10805       1   0   0           -0.00002 
      2    Sn1_4d_xy     Te3_5p_x      3.10805       1   0   0           -0.00203 
      2    Sn1_4d_xy    Te3_4d_xy      3.10805       1   0   0            0.00000 
      2    Sn1_4d_xy    Te3_4d_yz      3.10805       1   0   0           -0.00000 
      2    Sn1_4d_xy   Te3_4d_z^2      3.10805       1   0   0            0.00000 
      2    Sn1_4d_xy    Te3_4d_xz      3.10805       1   0   0           -0.00000 
      2    Sn1_4d_xy Te3_4d_x^2-y^2      3.10805       1   0   0            0.00000 
      2    Sn1_4d_yz       Te3_5s      3.10805       1   0   0           -0.00001 
      2    Sn1_4d_yz     Te3_5p_y      3.10805       1   0   0           -0.00008 
      2    Sn1_4d_yz     Te3_5p_z      3.10805       1   0   0           -0.00002 
      2    Sn1_4d_yz     Te3_5p_x      3.10805       1   0   0           -0.00035 
      2    Sn1_4d_yz    Te3_4d_xy      3.10805       1   0   0           -0.00000 
      2    Sn1_4d_yz    Te3_4d_yz      3.10805       1   0   0            0.00000 
      2    Sn1_4d_yz   Te3_4d_z^2      3.10805       1   0   0           -0.00000 
      2    Sn1_4d_yz    Te3_4d_xz      3.10805       1   0   0            0.00000 
      2    Sn1_4d_yz Te3_4d_x^2-y^2      3.10805       1   0   0           -0.00000 
      2   Sn1_4d_z^2       Te3_5s      3.10805       1   0   0           -0.00001 
      2   Sn1_4d_z^2     Te3_5p_y      3.10805       1   0   0           -0.00062 
      2   Sn1_4d_z^2     Te3_5p_z      3.10805       1   0   0            0.00012 
      2   Sn1_4d_z^2     Te3_5p_x      3.10805       1   0   0           -0.00068 
      2   Sn1_4d_z^2    Te3_4d_xy      3.10805       1   0   0            0.00000 
      2   Sn1_4d_z^2    Te3_4d_yz      3.10805       1   0   0            0.00000 
      2   Sn1_4d_z^2   Te3_4d_z^2      3.10805       1   0   0            0.00000 
      2   Sn1_4d_z^2    Te3_4d_xz      3.10805       1   0   0            0.00000 
      2   Sn1_4d_z^2 Te3_4d_x^2-y^2      3.10805       1   0   0           -0.00000 
      2    Sn1_4d_xz       Te3_5s      3.10805       1   0   0           -0.00001 
      2    Sn1_4d_xz     Te3_5p_y      3.10805       1   0   0           -0.00033 
      2    Sn1_4d_xz     Te3_5p_z      3.10805       1   0   0           -0.00005 
      2    Sn1_4d_xz     Te3_5p_x      3.10805       1   0   0           -0.00009 
      2    Sn1_4d_xz    Te3_4d_xy      3.10805       1   0   0           -0.00000 
      2    Sn1_4d_xz    Te3_4d_yz      3.10805       1   0   0            0.00000 
      2    Sn1_4d_xz   Te3_4d_z^2      3.10805       1   0   0           -0.00000 
      2    Sn1_4d_xz    Te3_4d_xz      3.10805       1   0   0            0.00000 
      2    Sn1_4d_xz Te3_4d_x^2-y^2      3.10805       1   0   0           -0.00000 
      2 Sn1_4d_x^2-y^2       Te3_5s      3.10805       1   0   0           -0.00000 
      2 Sn1_4d_x^2-y^2     Te3_5p_y      3.10805       1   0   0           -0.00024 
      2 Sn1_4d_x^2-y^2     Te3_5p_z      3.10805       1   0   0            0.00000 
      2 Sn1_4d_x^2-y^2     Te3_5p_x      3.10805       1   0   0           -0.00008 
      2 Sn1_4d_x^2-y^2    Te3_4d_xy      3.10805       1   0   0            0.00000 
      2 Sn1_4d_x^2-y^2    Te3_4d_yz      3.10805       1   0   0           -0.00000 
      2 Sn1_4d_x^2-y^2   Te3_4d_z^2      3.10805       1   0   0           -0.00000 
      2 Sn1_4d_x^2-y^2    Te3_4d_xz      3.10805       1   0   0            0.00000 
      2 Sn1_4d_x^2-y^2 Te3_4d_x^2-y^2      3.10805       1   0   0            0.00000 
      3          Sn1          Te3      3.17750       0   1   0           -1.42138 
      3       Sn1_5s       Te3_5s      3.17750       0   1   0            0.00823 
      3       Sn1_5s     Te3_5p_y      3.17750       0   1   0           -0.05776 
      3       Sn1_5s     Te3_5p_z      3.17750       0   1   0           -0.00165 
      3       Sn1_5s     Te3_5p_x      3.17750       0   1   0           -0.05438 
      3       Sn1_5s    Te3_4d_xy      3.17750       0   1   0            0.00038 
      3       Sn1_5s    Te3_4d_yz      3.17750       0   1   0           -0.00002 
      3       Sn1_5s   Te3_4d_z^2      3.17750       0   1   0            0.00011 
      3       Sn1_5s    Te3_4d_xz      3.17750       0   1   0           -0.00002 
      3       Sn1_5s Te3_4d_x^2-y^2      3.17750       0   1   0           -0.00000 
      3     Sn1_5p_y       Te3_5s      3.17750       0   1   0           -0.15087 
      3     Sn1_5p_y     Te3_5p_y      3.17750       0   1   0           -0.15890 
      3     Sn1_5p_y     Te3_5p_z      3.17750       0   1   0           -0.00103 
      3     Sn1_5p_y     Te3_5p_x      3.17750       0   1   0           -0.32440 
      3     Sn1_5p_y    Te3_4d_xy      3.17750       0   1   0           -0.00336 
      3     Sn1_5p_y    Te3_4d_yz      3.17750       0   1   0           -0.00002 
      3     Sn1_5p_y   Te3_4d_z^2      3.17750       0   1   0           -0.00106 
      3     Sn1_5p_y    Te3_4d_xz      3.17750       0   1   0           -0.00006 
      3     Sn1_5p_y Te3_4d_x^2-y^2      3.17750       0   1   0           -0.00047 
      3     Sn1_5p_z       Te3_5s      3.17750       0   1   0           -0.00647 
      3     Sn1_5p_z     Te3_5p_y      3.17750       0   1   0           -0.00484 
      3     Sn1_5p_z     Te3_5p_z      3.17750       0   1   0           -0.03732 
      3     Sn1_5p_z     Te3_5p_x      3.17750       0   1   0           -0.00431 
      3     Sn1_5p_z    Te3_4d_xy      3.17750       0   1   0           -0.00001 
      3     Sn1_5p_z    Te3_4d_yz      3.17750       0   1   0           -0.00064 
      3     Sn1_5p_z   Te3_4d_z^2      3.17750       0   1   0            0.00004 
      3     Sn1_5p_z    Te3_4d_xz      3.17750       0   1   0           -0.00061 
      3     Sn1_5p_z Te3_4d_x^2-y^2      3.17750       0   1   0           -0.00000 
      3     Sn1_5p_x       Te3_5s      3.17750       0   1   0           -0.14610 
      3     Sn1_5p_x     Te3_5p_y      3.17750       0   1   0           -0.33095 
      3     Sn1_5p_x     Te3_5p_z      3.17750       0   1   0           -0.00084 
      3     Sn1_5p_x     Te3_5p_x      3.17750       0   1   0           -0.13470 
      3     Sn1_5p_x    Te3_4d_xy      3.17750       0   1   0           -0.00310 
      3     Sn1_5p_x    Te3_4d_yz      3.17750       0   1   0           -0.00005 
      3     Sn1_5p_x   Te3_4d_z^2      3.17750       0   1   0           -0.00106 
      3     Sn1_5p_x    Te3_4d_xz      3.17750       0   1   0           -0.00002 
      3     Sn1_5p_x Te3_4d_x^2-y^2      3.17750       0   1   0           -0.00074 
      3    Sn1_4d_xy       Te3_5s      3.17750       0   1   0            0.00043 
      3    Sn1_4d_xy     Te3_5p_y      3.17750       0   1   0           -0.00158 
      3    Sn1_4d_xy     Te3_5p_z      3.17750       0   1   0           -0.00000 
      3    Sn1_4d_xy     Te3_5p_x      3.17750       0   1   0           -0.00153 
      3    Sn1_4d_xy    Te3_4d_xy      3.17750       0   1   0            0.00000 
      3    Sn1_4d_xy    Te3_4d_yz      3.17750       0   1   0           -0.00000 
      3    Sn1_4d_xy   Te3_4d_z^2      3.17750       0   1   0            0.00000 
      3    Sn1_4d_xy    Te3_4d_xz      3.17750       0   1   0           -0.00000 
      3    Sn1_4d_xy Te3_4d_x^2-y^2      3.17750       0   1   0            0.00000 
      3    Sn1_4d_yz       Te3_5s      3.17750       0   1   0           -0.00000 
      3    Sn1_4d_yz     Te3_5p_y      3.17750       0   1   0           -0.00008 
      3    Sn1_4d_yz     Te3_5p_z      3.17750       0   1   0           -0.00002 
      3    Sn1_4d_yz     Te3_5p_x      3.17750       0   1   0           -0.00029 
      3    Sn1_4d_yz    Te3_4d_xy      3.17750       0   1   0           -0.00000 
      3    Sn1_4d_yz    Te3_4d_yz      3.17750       0   1   0            0.00000 
      3    Sn1_4d_yz   Te3_4d_z^2      3.17750       0   1   0           -0.00000 
      3    Sn1_4d_yz    Te3_4d_xz      3.17750       0   1   0            0.00000 
      3    Sn1_4d_yz Te3_4d_x^2-y^2      3.17750       0   1   0           -0.00000 
      3   Sn1_4d_z^2       Te3_5s      3.17750       0   1   0            0.00005 
      3   Sn1_4d_z^2     Te3_5p_y      3.17750       0   1   0           -0.00054 
      3   Sn1_4d_z^2     Te3_5p_z      3.17750       0   1   0            0.00011 
      3   Sn1_4d_z^2     Te3_5p_x      3.17750       0   1   0           -0.00049 
      3   Sn1_4d_z^2    Te3_4d_xy      3.17750       0   1   0            0.00000 
      3   Sn1_4d_z^2    Te3_4d_yz      3.17750       0   1   0            0.00000 
      3   Sn1_4d_z^2   Te3_4d_z^2      3.17750       0   1   0            0.00000 
      3   Sn1_4d_z^2    Te3_4d_xz      3.17750       0   1   0            0.00000 
      3   Sn1_4d_z^2 Te3_4d_x^2-y^2      3.17750       0   1   0           -0.00000 
      3    Sn1_4d_xz       Te3_5s      3.17750       0   1   0           -0.00001 
      3    Sn1_4d_xz     Te3_5p_y      3.17750       0   1   0           -0.00029 
      3    Sn1_4d_xz     Te3_5p_z      3.17750       0   1   0            0.00001 
      3    Sn1_4d_xz     Te3_5p_x      3.17750       0   1   0           -0.00006 
      3    Sn1_4d_xz    Te3_4d_xy      3.17750       0   1   0           -0.00000 
      3    Sn1_4d_xz    Te3_4d_yz      3.17750       0   1   0            0.00000 
      3    Sn1_4d_xz   Te3_4d_z^2      3.17750       0   1   0            0.00000 
      3    Sn1_4d_xz    Te3_4d_xz      3.17750       0   1   0            0.00000 
      3    Sn1_4d_xz Te3_4d_x^2-y^2      3.17750       0   1   0           -0.00000 
      3 Sn1_4d_x^2-y^2       Te3_5s      3.17750       0   1   0           -0.00000 
      3 Sn1_4d_x^2-y^2     Te3_5p_y      3.17750       0   1   0            0.00003 
      3 Sn1_4d_x^2-y^2     Te3_5p_z      3.17750       0   1   0            0.00000 
      3 Sn1_4d_x^2-y^2     Te3_5p_x      3.17750       0   1   0           -0.00011 
      3 Sn1_4d_x^2-y^2    Te3_4d_xy      3.17750       0   1   0            0.00000 
      3 Sn1_4d_x^2-y^2    Te3_4d_yz      3.17750       0   1   0           -0.00000 
      3 Sn1_4d_x^2-y^2   Te3_4d_z^2      3.17750       0   1   0           -0.00000 
      3 Sn1_4d_x^2-y^2    Te3_4d_xz      3.17750       0   1   0            0.00000 
      3 Sn1_4d_x^2-y^2 Te3_4d_x^2-y^2      3.17750       0   1   0            0.00000 
      4          Sn1          Te3      3.17752       1   1   0           -1.42128 
      4       Sn1_5s       Te3_5s      3.17752       1   1   0            0.00823 
      4       Sn1_5s     Te3_5p_y      3.17752       1   1   0           -0.05774 
      4       Sn1_5s     Te3_5p_z      3.17752       1   1   0           -0.00165 
      4       Sn1_5s     Te3_5p_x      3.17752       1   1   0           -0.05445 
      4       Sn1_5s    Te3_4d_xy      3.17752       1   1   0            0.00038 
      4       Sn1_5s    Te3_4d_yz      3.17752       1   1   0           -0.00002 
      4       Sn1_5s   Te3_4d_z^2      3.17752       1   1   0            0.00011 
      4       Sn1_5s    Te3_4d_xz      3.17752       1   1   0           -0.00002 
      4       Sn1_5s Te3_4d_x^2-y^2      3.17752       1   1   0           -0.00000 
      4     Sn1_5p_y       Te3_5s      3.17752       1   1   0           -0.15084 
      4     Sn1_5p_y     Te3_5p_y      3.17752       1   1   0           -0.15887 
      4     Sn1_5p_y     Te3_5p_z      3.17752       1   1   0           -0.00103 
      4     Sn1_5p_y     Te3_5p_x      3.17752       1   1   0           -0.32440 
      4     Sn1_5p_y    Te3_4d_xy      3.17752       1   1   0           -0.00336 
      4     Sn1_5p_y    Te3_4d_yz      3.17752       1   1   0           -0.00002 
      4     Sn1_5p_y   Te3_4d_z^2      3.17752       1   1   0           -0.00106 
      4     Sn1_5p_y    Te3_4d_xz      3.17752       1   1   0           -0.00006 
      4     Sn1_5p_y Te3_4d_x^2-y^2      3.17752       1   1   0           -0.00047 
      4     Sn1_5p_z       Te3_5s      3.17752       1   1   0           -0.00647 
      4     Sn1_5p_z     Te3_5p_y      3.17752       1   1   0           -0.00484 
      4     Sn1_5p_z     Te3_5p_z      3.17752       1   1   0           -0.03732 
      4     Sn1_5p_z     Te3_5p_x      3.17752       1   1   0           -0.00432 
      4     Sn1_5p_z    Te3_4d_xy      3.17752       1   1   0           -0.00001 
      4     Sn1_5p_z    Te3_4d_yz      3.17752       1   1   0           -0.00064 
      4     Sn1_5p_z   Te3_4d_z^2      3.17752       1   1   0            0.00004 
      4     Sn1_5p_z    Te3_4d_xz      3.17752       1   1   0           -0.00061 
      4     Sn1_5p_z Te3_4d_x^2-y^2      3.17752       1   1   0           -0.00000 
      4     Sn1_5p_x       Te3_5s      3.17752       1   1   0           -0.14603 
      4     Sn1_5p_x     Te3_5p_y      3.17752       1   1   0           -0.33092 
      4     Sn1_5p_x     Te3_5p_z      3.17752       1   1   0           -0.00084 
      4     Sn1_5p_x     Te3_5p_x      3.17752       1   1   0           -0.13472 
      4     Sn1_5p_x    Te3_4d_xy      3.17752       1   1   0           -0.00310 
      4     Sn1_5p_x    Te3_4d_yz      3.17752       1   1   0           -0.00005 
      4     Sn1_5p_x   Te3_4d_z^2      3.17752       1   1   0           -0.00106 
      4     Sn1_5p_x    Te3_4d_xz      3.17752       1   1   0           -0.00002 
      4     Sn1_5p_x Te3_4d_x^2-y^2      3.17752       1   1   0           -0.00074 
      4    Sn1_4d_xy       Te3_5s      3.17752       1   1   0            0.00043 
      4    Sn1_4d_xy     Te3_5p_y      3.17752       1   1   0           -0.00158 
      4    Sn1_4d_xy     Te3_5p_z      3.17752       1   1   0           -0.00000 
      4    Sn1_4d_xy     Te3_5p_x      3.17752       1   1   0           -0.00153 
      4    Sn1_4d_xy    Te3_4d_xy      3.17752       1   1   0            0.00000 
      4    Sn1_4d_xy    Te3_4d_yz      3.17752       1   1   0           -0.00000 
      4    Sn1_4d_xy   Te3_4d_z^2      3.17752       1   1   0            0.00000 
      4    Sn1_4d_xy    Te3_4d_xz      3.17752       1   1   0           -0.00000 
      4    Sn1_4d_xy Te3_4d_x^2-y^2      3.17752       1   1   0            0.00000 
      4    Sn1_4d_yz       Te3_5s      3.17752       1   1   0           -0.00000 
      4    Sn1_4d_yz     Te3_5p_y      3.17752       1   1   0           -0.00008 
      4    Sn1_4d_yz     Te3_5p_z      3.17752       1   1   0           -0.00002 
      4    Sn1_4d_yz     Te3_5p_x      3.17752       1   1   0           -0.00029 
      4    Sn1_4d_yz    Te3_4d_xy      3.17752       1   1   0           -0.00000 
      4    Sn1_4d_yz    Te3_4d_yz      3.17752       1   1   0            0.00000 
      4    Sn1_4d_yz   Te3_4d_z^2      3.17752       1   1   0           -0.00000 
      4    Sn1_4d_yz    Te3_4d_xz      3.17752       1   1   0            0.00000 
      4    Sn1_4d_yz Te3_4d_x^2-y^2      3.17752       1   1   0           -0.00000 
      4   Sn1_4d_z^2       Te3_5s      3.17752       1   1   0            0.00005 
      4   Sn1_4d_z^2     Te3_5p_y      3.17752       1   1   0           -0.00054 
      4   Sn1_4d_z^2     Te3_5p_z      3.17752       1   1   0            0.00011 
      4   Sn1_4d_z^2     Te3_5p_x      3.17752       1   1   0           -0.00049 
      4   Sn1_4d_z^2    Te3_4d_xy      3.17752       1   1   0            0.00000 
      4   Sn1_4d_z^2    Te3_4d_yz      3.17752       1   1   0            0.00000 
      4   Sn1_4d_z^2   Te3_4d_z^2      3.17752       1   1   0            0.00000 
      4   Sn1_4d_z^2    Te3_4d_xz      3.17752       1   1   0            0.00000 
      4   Sn1_4d_z^2 Te3_4d_x^2-y^2      3.17752       1   1   0           -0.00000 
      4    Sn1_4d_xz       Te3_5s      3.17752       1   1   0           -0.00001 
      4    Sn1_4d_xz     Te3_5p_y      3.17752       1   1   0           -0.00029 
      4    Sn1_4d_xz     Te3_5p_z      3.17752       1   1   0            0.00001 
      4    Sn1_4d_xz     Te3_5p_x      3.17752       1   1   0           -0.00006 
      4    Sn1_4d_xz    Te3_4d_xy      3.17752       1   1   0           -0.00000 
      4    Sn1_4d_xz    Te3_4d_yz      3.17752       1   1   0            0.00000 
      4    Sn1_4d_xz   Te3_4d_z^2      3.17752       1   1   0            0.00000 
      4    Sn1_4d_xz    Te3_4d_xz      3.17752       1   1   0            0.00000 
      4    Sn1_4d_xz Te3_4d_x^2-y^2      3.17752       1   1   0           -0.00000 
      4 Sn1_4d_x^2-y^2       Te3_5s      3.17752       1   1   0           -0.00000 
      4 Sn1_4d_x^2-y^2     Te3_5p_y      3.17752       1   1   0            0.00003 
      4 Sn1_4d_x^2-y^2     Te3_5p_z      3.17752       1   1   0            0.00000 
      4 Sn1_4d_x^2-y^2     Te3_5p_x      3.17752       1   1   0           -0.00011 
      4 Sn1_4d_x^2-y^2    Te3_4d_xy      3.17752       1   1   0            0.00000 
      4 Sn1_4d_x^2-y^2    Te3_4d_yz      3.17752       1   1   0           -0.00000 
      4 Sn1_4d_x^2-y^2   Te3_4d_z^2      3.17752       1   1   0           -0.00000 
      4 Sn1_4d_x^2-y^2    Te3_4d_xz      3.17752       1   1   0            0.00000 
      4 Sn1_4d_x^2-y^2 Te3_4d_x^2-y^2      3.17752       1   1   0            0.00000 
      5          Sn1          Te4      2.87871       0   0   0           -2.77722 
      5       Sn1_5s       Te4_5s      2.87871       0   0   0           -0.05406 
      5       Sn1_5s     Te4_5p_y      2.87871       0   0   0           -0.00034 
      5       Sn1_5s     Te4_5p_z      2.87871       0   0   0           -0.27732 
      5       Sn1_5s     Te4_5p_x      2.87871       0   0   0           -0.00000 
      5       Sn1_5s    Te4_4d_xy      2.87871       0   0   0           -0.00000 
      5       Sn1_5s    Te4_4d_yz      2.87871       0   0   0           -0.00000 
      5       Sn1_5s   Te4_4d_z^2      2.87871       0   0   0           -0.00146 
      5       Sn1_5s    Te4_4d_xz      2.87871       0   0   0           -0.00000 
      5       Sn1_5s Te4_4d_x^2-y^2      2.87871       0   0   0           -0.00000 
      5     Sn1_5p_y       Te4_5s      2.87871       0   0   0           -0.00010 
      5     Sn1_5p_y     Te4_5p_y      2.87871       0   0   0           -0.08834 
      5     Sn1_5p_y     Te4_5p_z      2.87871       0   0   0           -0.00044 
      5     Sn1_5p_y     Te4_5p_x      2.87871       0   0   0            0.00000 
      5     Sn1_5p_y    Te4_4d_xy      2.87871       0   0   0           -0.00000 
      5     Sn1_5p_y    Te4_4d_yz      2.87871       0   0   0           -0.00346 
      5     Sn1_5p_y   Te4_4d_z^2      2.87871       0   0   0           -0.00002 
      5     Sn1_5p_y    Te4_4d_xz      2.87871       0   0   0           -0.00000 
      5     Sn1_5p_y Te4_4d_x^2-y^2      2.87871       0   0   0           -0.00000 
      5     Sn1_5p_z       Te4_5s      2.87871       0   0   0           -0.58017 
      5     Sn1_5p_z     Te4_5p_y      2.87871       0   0   0           -0.00100 
      5     Sn1_5p_z     Te4_5p_z      2.87871       0   0   0           -1.64388 
      5     Sn1_5p_z     Te4_5p_x      2.87871       0   0   0           -0.00000 
      5     Sn1_5p_z    Te4_4d_xy      2.87871       0   0   0           -0.00000 
      5     Sn1_5p_z    Te4_4d_yz      2.87871       0   0   0           -0.00002 
      5     Sn1_5p_z   Te4_4d_z^2      2.87871       0   0   0           -0.01833 
      5     Sn1_5p_z    Te4_4d_xz      2.87871       0   0   0           -0.00000 
      5     Sn1_5p_z Te4_4d_x^2-y^2      2.87871       0   0   0           -0.00000 
      5     Sn1_5p_x       Te4_5s      2.87871       0   0   0           -0.00000 
      5     Sn1_5p_x     Te4_5p_y      2.87871       0   0   0           -0.00000 