   2    2    1    1
  2.4935618e+02   4.3607218e-10   4.3607218e-10   1.3113039e-09   0.0000000e+00
            0.000000e+00
  CAR
 DOS and projected DOS file by LOBSTER. Energy is shifted such that the Fermi level lies at 0 eV. 
      6.59350147     -37.45054258  1001      -0.40950154       1.00000000
-37.04104   0.00000   0.00000
-36.99700   0.00001   0.00000
-36.95295   0.00006   0.00000
-36.90891   0.00027   0.00001
-36.86486   0.00113   0.00006
-36.82082   0.00431   0.00025
-36.77678   0.01497   0.00091
-36.73273   0.04729   0.00300
-36.68869   0.13582   0.00898
-36.64464   0.35463   0.02460
-36.60060   0.84182   0.06168
-36.55656   1.81677   0.14169
-36.51251   3.56469   0.29870
-36.46847   6.35891   0.57877
-36.42442  10.31294   1.03299
-36.38038  15.20612   1.70273
-36.33634  20.38390   2.60052
-36.29229  24.84191   3.69466
-36.24825  27.52368   4.90691
-36.20420  27.72336   6.12796
-36.16016  25.38611   7.24607
-36.11612  21.13245   8.17683
-36.07207  15.99185   8.88117
-36.02803  11.00102   9.36570
-35.98398   6.87929   9.66869
-35.93994   3.91039   9.84092
-35.89590   2.02046   9.92991
-35.85185   0.94891   9.97171
-35.80781   0.40507   9.98955
-35.76376   0.15716   9.99647
-35.71972   0.05542   9.99891
-35.67568   0.01776   9.99969
-35.63163   0.00517   9.99992
-35.58759   0.00137   9.99998
-35.54354   0.00033  10.00000
-35.49950   0.00007  10.00000
-35.45546   0.00001  10.00000
-35.41141   0.00000  10.00000
-35.36737   0.00000  10.00000
-35.32332   0.00000  10.00000
-35.27928   0.00000  10.00000
-35.23524   0.00000  10.00000
-35.19119   0.00000  10.00000
-35.14715   0.00000  10.00000
-35.10310   0.00000  10.00000
-35.05906   0.00000  10.00000
-35.01502   0.00000  10.00000
-34.97097   0.00000  10.00000
-34.92693   0.00000  10.00000
-34.88288   0.00000  10.00000
-34.83884   0.00000  10.00000
-34.79479   0.00000  10.00000
-34.75075   0.00000  10.00000
-34.70671   0.00000  10.00000
-34.66266   0.00000  10.00000
-34.61862   0.00000  10.00000
-34.57457   0.00000  10.00000
-34.53053   0.00000  10.00000
-34.48649   0.00000  10.00000
-34.44244   0.00000  10.00000
-34.39840   0.00000  10.00000
-34.35435   0.00000  10.00000
-34.31031   0.00000  10.00000
-34.26627   0.00000  10.00000
-34.22222   0.00000  10.00000
-34.17818   0.00000  10.00000
-34.13413   0.00000  10.00000
-34.09009   0.00000  10.00000
-34.04605   0.00000  10.00000
-34.00200   0.00000  10.00000
-33.95796   0.00000  10.00000
-33.91391   0.00000  10.00000
-33.86987   0.00000  10.00000
-33.82583   0.00000  10.00000
-33.78178   0.00000  10.00000
-33.73774   0.00000  10.00000
-33.69369   0.00000  10.00000
-33.64965   0.00000  10.00000
-33.60561   0.00000  10.00000
-33.56156   0.00000  10.00000
-33.51752   0.00000  10.00000
-33.47347   0.00000  10.00000
-33.42943   0.00000  10.00000
-33.38539   0.00000  10.00000
-33.34134   0.00000  10.00000
-33.29730   0.00000  10.00000
-33.25325   0.00000  10.00000
-33.20921   0.00000  10.00000
-33.16517   0.00000  10.00000
-33.12112   0.00000  10.00000
-33.07708   0.00000  10.00000
-33.03303   0.00000  10.00000
-32.98899   0.00000  10.00000
-32.94494   0.00000  10.00000
-32.90090   0.00000  10.00000
-32.85686   0.00000  10.00000
-32.81281   0.00000  10.00000
-32.76877   0.00000  10.00000
-32.72472   0.00000  10.00000
-32.68068   0.00000  10.00000
-32.63664   0.00000  10.00000
-32.59259   0.00000  10.00000
-32.54855   0.00000  10.00000
-32.50450   0.00000  10.00000
-32.46046   0.00000  10.00000
-32.41642   0.00000  10.00000
-32.37237   0.00000  10.00000
-32.32833   0.00000  10.00000
-32.28428   0.00000  10.00000
-32.24024   0.00000  10.00000
-32.19620   0.00000  10.00000
-32.15215   0.00000  10.00000
-32.10811   0.00000  10.00000
-32.06406   0.00000  10.00000
-32.02002   0.00000  10.00000
-31.97598   0.00000  10.00000
-31.93193   0.00000  10.00000
-31.88789   0.00000  10.00000
-31.84384   0.00000  10.00000
-31.79980   0.00000  10.00000
-31.75576   0.00000  10.00000
-31.71171   0.00000  10.00000
-31.66767   0.00000  10.00000
-31.62362   0.00000  10.00000
-31.57958   0.00000  10.00000
-31.53554   0.00000  10.00000
-31.49149   0.00000  10.00000
-31.44745   0.00000  10.00000
-31.40340   0.00000  10.00000
-31.35936   0.00000  10.00000
-31.31532   0.00000  10.00000
-31.27127   0.00000  10.00000
-31.22723   0.00000  10.00000
-31.18318   0.00000  10.00000
-31.13914   0.00000  10.00000
-31.09510   0.00000  10.00000
-31.05105   0.00000  10.00000
-31.00701   0.00000  10.00000
-30.96296   0.00000  10.00000
-30.91892   0.00000  10.00000
-30.87487   0.00000  10.00000
-30.83083   0.00000  10.00000
-30.78679   0.00000  10.00000
-30.74274   0.00000  10.00000
-30.69870   0.00000  10.00000
-30.65465   0.00000  10.00000
-30.61061   0.00000  10.00000
-30.56657   0.00000  10.00000
-30.52252   0.00000  10.00000
-30.47848   0.00000  10.00000
-30.43443   0.00000  10.00000
-30.39039   0.00000  10.00000
-30.34635   0.00000  10.00000
-30.30230   0.00000  10.00000
-30.25826   0.00000  10.00000
-30.21421   0.00000  10.00000
-30.17017   0.00000  10.00000
-30.12613   0.00000  10.00000
-30.08208   0.00000  10.00000
-30.03804   0.00000  10.00000
-29.99399   0.00000  10.00000
-29.94995   0.00000  10.00000
-29.90591   0.00000  10.00000
-29.86186   0.00000  10.00000
-29.81782   0.00000  10.00000
-29.77377   0.00000  10.00000
-29.72973   0.00000  10.00000
-29.68569   0.00000  10.00000
-29.64164   0.00000  10.00000
-29.59760   0.00000  10.00000
-29.55355   0.00000  10.00000
-29.50951   0.00000  10.00000
-29.46547   0.00000  10.00000
-29.42142   0.00000  10.00000
-29.37738   0.00000  10.00000
-29.33333   0.00000  10.00000
-29.28929   0.00000  10.00000
-29.24525   0.00000  10.00000
-29.20120   0.00000  10.00000
-29.15716   0.00000  10.00000
-29.11311   0.00000  10.00000
-29.06907   0.00000  10.00000
-29.02503   0.00000  10.00000
-28.98098   0.00000  10.00000
-28.93694   0.00000  10.00000
-28.89289   0.00000  10.00000
-28.84885   0.00000  10.00000
-28.80480   0.00000  10.00000
-28.76076   0.00000  10.00000
-28.71672   0.00000  10.00000
-28.67267   0.00000  10.00000
-28.62863   0.00000  10.00000
-28.58458   0.00000  10.00000
-28.54054   0.00000  10.00000
-28.49650   0.00000  10.00000
-28.45245   0.00000  10.00000
-28.40841   0.00000  10.00000
-28.36436   0.00000  10.00000
-28.32032   0.00000  10.00000
-28.27628   0.00000  10.00000
-28.23223   0.00000  10.00000
-28.18819   0.00000  10.00000
-28.14414   0.00000  10.00000
-28.10010   0.00000  10.00000
-28.05606   0.00000  10.00000
-28.01201   0.00000  10.00000
-27.96797   0.00000  10.00000
-27.92392   0.00000  10.00000
-27.87988   0.00000  10.00000
-27.83584   0.00000  10.00000
-27.79179   0.00000  10.00000
-27.74775   0.00000  10.00000
-27.70370   0.00000  10.00000
-27.65966   0.00000  10.00000
-27.61562   0.00000  10.00000
-27.57157   0.00000  10.00000
-27.52753   0.00000  10.00000
-27.48348   0.00000  10.00000
-27.43944   0.00000  10.00000
-27.39540   0.00000  10.00000
-27.35135   0.00000  10.00000
-27.30731   0.00000  10.00000
-27.26326   0.00000  10.00000
-27.21922   0.00000  10.00000
-27.17518   0.00000  10.00000
-27.13113   0.00000  10.00000
-27.08709   0.00000  10.00000
-27.04304   0.00000  10.00000
-26.99900   0.00000  10.00000
-26.95495   0.00000  10.00000
-26.91091   0.00000  10.00000
-26.86687   0.00000  10.00000
-26.82282   0.00000  10.00000
-26.77878   0.00000  10.00000
-26.73473   0.00000  10.00000
-26.69069   0.00000  10.00000
-26.64665   0.00000  10.00000
-26.60260   0.00000  10.00000
-26.55856   0.00000  10.00000
-26.51451   0.00000  10.00000
-26.47047   0.00000  10.00000
-26.42643   0.00000  10.00000
-26.38238   0.00000  10.00000
-26.33834   0.00000  10.00000
-26.29429   0.00000  10.00000
-26.25025   0.00000  10.00000
-26.20621   0.00000  10.00000
-26.16216   0.00000  10.00000
-26.11812   0.00000  10.00000
-26.07407   0.00000  10.00000
-26.03003   0.00000  10.00000
-25.98599   0.00000  10.00000
-25.94194   0.00000  10.00000
-25.89790   0.00000  10.00000
-25.85385   0.00000  10.00000
-25.80981   0.00000  10.00000
-25.76577   0.00000  10.00000
-25.72172   0.00000  10.00000
-25.67768   0.00000  10.00000
-25.63363   0.00000  10.00000
-25.58959   0.00000  10.00000
-25.54555   0.00000  10.00000
-25.50150   0.00000  10.00000
-25.45746   0.00000  10.00000
-25.41341   0.00000  10.00000
-25.36937   0.00000  10.00000
-25.32533   0.00000  10.00000
-25.28128   0.00000  10.00000
-25.23724   0.00000  10.00000
-25.19319   0.00000  10.00000
-25.14915   0.00000  10.00000
-25.10511   0.00000  10.00000
-25.06106   0.00000  10.00000
-25.01702   0.00000  10.00000
-24.97297   0.00000  10.00000
-24.92893   0.00000  10.00000
-24.88488   0.00000  10.00000
-24.84084   0.00000  10.00000
-24.79680   0.00000  10.00000
-24.75275   0.00000  10.00000
-24.70871   0.00000  10.00000
-24.66466   0.00000  10.00000
-24.62062   0.00000  10.00000
-24.57658   0.00000  10.00000
-24.53253   0.00000  10.00000
-24.48849   0.00000  10.00000
-24.44444   0.00000  10.00000
-24.40040   0.00000  10.00000
-24.35636   0.00000  10.00000
-24.31231   0.00000  10.00000
-24.26827   0.00000  10.00000
-24.22422   0.00000  10.00000
-24.18018   0.00000  10.00000
-24.13614   0.00000  10.00000
-24.09209   0.00000  10.00000
-24.04805   0.00000  10.00000
-24.00400   0.00000  10.00000
-23.95996   0.00000  10.00000
-23.91592   0.00000  10.00000
-23.87187   0.00000  10.00000
-23.82783   0.00000  10.00000
-23.78378   0.00000  10.00000
-23.73974   0.00000  10.00000
-23.69570   0.00000  10.00000
-23.65165   0.00000  10.00000
-23.60761   0.00000  10.00000
-23.56356   0.00000  10.00000
-23.51952   0.00000  10.00000
-23.47548   0.00000  10.00000
-23.43143   0.00000  10.00000
-23.38739   0.00000  10.00000
-23.34334   0.00000  10.00000
-23.29930   0.00000  10.00000
-23.25526   0.00000  10.00000
-23.21121   0.00000  10.00000
-23.16717   0.00000  10.00000
-23.12312   0.00000  10.00000
-23.07908   0.00000  10.00000
-23.03504   0.00000  10.00000
-22.99099   0.00000  10.00000
-22.94695   0.00000  10.00000
-22.90290   0.00000  10.00000
-22.85886   0.00000  10.00000
-22.81481   0.00000  10.00000
-22.77077   0.00000  10.00000
-22.72673   0.00000  10.00000
-22.68268   0.00000  10.00000
-22.63864   0.00000  10.00000
-22.59459   0.00000  10.00000
-22.55055   0.00000  10.00000
-22.50651   0.00000  10.00000
-22.46246   0.00000  10.00000
-22.41842   0.00000  10.00000
-22.37437   0.00000  10.00000
-22.33033   0.00000  10.00000
-22.28629   0.00000  10.00000
-22.24224   0.00000  10.00000
-22.19820   0.00000  10.00000
-22.15415   0.00000  10.00000
-22.11011   0.00000  10.00000
-22.06607   0.00000  10.00000
-22.02202   0.00000  10.00000
-21.97798   0.00000  10.00000
-21.93393   0.00000  10.00000
-21.88989   0.00000  10.00000
-21.84585   0.00000  10.00000
-21.80180   0.00000  10.00000
-21.75776   0.00000  10.00000
-21.71371   0.00000  10.00000
-21.66967   0.00000  10.00000
-21.62563   0.00000  10.00000
-21.58158   0.00000  10.00000
-21.53754   0.00000  10.00000
-21.49349   0.00000  10.00000
-21.44945   0.00000  10.00000
-21.40541   0.00000  10.00000
-21.36136   0.00000  10.00000
-21.31732   0.00000  10.00000
-21.27327   0.00000  10.00000
-21.22923   0.00000  10.00000
-21.18519   0.00000  10.00000
-21.14114   0.00000  10.00000
-21.09710   0.00000  10.00000
-21.05305   0.00000  10.00000
-21.00901   0.00000  10.00000
-20.96496   0.00000  10.00000
-20.92092   0.00000  10.00000
-20.87688   0.00000  10.00000
-20.83283   0.00000  10.00000
-20.78879   0.00000  10.00000
-20.74474   0.00000  10.00000
-20.70070   0.00000  10.00000
-20.65666   0.00000  10.00000
-20.61261   0.00000  10.00000
-20.56857   0.00000  10.00000
-20.52452   0.00000  10.00000
-20.48048   0.00000  10.00000
-20.43644   0.00000  10.00000
-20.39239   0.00000  10.00000
-20.34835   0.00000  10.00000
-20.30430   0.00000  10.00000
-20.26026   0.00000  10.00000
-20.21622   0.00000  10.00000
-20.17217   0.00000  10.00000
-20.12813   0.00000  10.00000
-20.08408   0.00000  10.00000
-20.04004   0.00000  10.00000
-19.99600   0.00000  10.00000
-19.95195   0.00000  10.00000
-19.90791   0.00000  10.00000
-19.86386   0.00000  10.00000
-19.81982   0.00000  10.00000
-19.77578   0.00000  10.00000
-19.73173   0.00000  10.00000
-19.68769   0.00000  10.00000
-19.64364   0.00000  10.00000
-19.59960   0.00000  10.00000
-19.55556   0.00000  10.00000
-19.51151   0.00000  10.00000
-19.46747   0.00000  10.00000
-19.42342   0.00000  10.00000
-19.37938   0.00000  10.00000
-19.33534   0.00000  10.00000
-19.29129   0.00000  10.00000
-19.24725   0.00000  10.00000
-19.20320   0.00000  10.00000
-19.15916   0.00000  10.00000
-19.11512   0.00000  10.00000
-19.07107   0.00000  10.00000
-19.02703   0.00000  10.00000
-18.98298   0.00000  10.00000
-18.93894   0.00000  10.00000
-18.89489   0.00000  10.00000
-18.85085   0.00000  10.00000
-18.80681   0.00000  10.00000
-18.76276   0.00000  10.00000
-18.71872   0.00000  10.00000
-18.67467   0.00000  10.00000
-18.63063   0.00000  10.00000
-18.58659   0.00000  10.00000
-18.54254   0.00000  10.00000
-18.49850   0.00000  10.00000
-18.45445   0.00000  10.00000
-18.41041   0.00000  10.00000
-18.36637   0.00000  10.00000
-18.32232   0.00000  10.00000
-18.27828   0.00000  10.00000
-18.23423   0.00000  10.00000
-18.19019   0.00000  10.00000
-18.14615   0.00000  10.00000
-18.10210   0.00002  10.00000
-18.05806   0.00010  10.00001
-18.01401   0.00041  10.00002
-17.96997   0.00155  10.00009
-17.92593   0.00540  10.00033
-17.88188   0.01718  10.00109
-17.83784   0.04993  10.00329
-17.79379   0.13271  10.00913
-17.74975   0.32290  10.02335
-17.70571   0.71990  10.05506
-17.66166   1.47222  10.11990
-17.61762   2.76493  10.24168
-17.57357   4.77516  10.45200
-17.52953   7.59500  10.78651
-17.48549  11.14369  11.27733
-17.44144  15.11098  11.94287
-17.39740  18.97512  12.77862
-17.35335  22.11047  13.75245
-17.30931  23.95497  14.80752
-17.26527  24.17276  15.87219
-17.22122  22.74719  16.87407
-17.17718  19.97288  17.75375
-17.13313  16.35887  18.47427
-17.08909  12.48528  19.02417
-17.04505   8.86344  19.41455
-17.00100   5.83947  19.67174
-16.95696   3.56132  19.82860
-16.91291   2.00537  19.91692
-16.86887   1.04007  19.96273
-16.82482   0.49575  19.98457
-16.78078   0.21675  19.99411
-16.73674   0.08679  19.99794
-16.69269   0.03178  19.99934
-16.64865   0.01063  19.99980
-16.60460   0.00325  19.99995
-16.56056   0.00090  19.99999
-16.51652   0.00023  20.00000
-16.47247   0.00005  20.00000
-16.42843   0.00001  20.00000
-16.38438   0.00000  20.00000
-16.34034   0.00000  20.00000
-16.29630   0.00000  20.00000
-16.25225   0.00000  20.00000
-16.20821   0.00000  20.00000
-16.16416   0.00000  20.00000
-16.12012   0.00000  20.00000
-16.07608   0.00000  20.00000
-16.03203   0.00000  20.00000
-15.98799   0.00000  20.00000
-15.94394   0.00000  20.00000
-15.89990   0.00000  20.00000
-15.85586   0.00000  20.00000
-15.81181   0.00000  20.00000
-15.76777   0.00000  20.00000
-15.72372   0.00000  20.00000
-15.67968   0.00000  20.00000
-15.63564   0.00000  20.00000
-15.59159   0.00000  20.00000
-15.54755   0.00000  20.00000
-15.50350   0.00000  20.00000
-15.45946   0.00000  20.00000
-15.41542   0.00000  20.00000
-15.37137   0.00000  20.00000
-15.32733   0.00000  20.00000
-15.28328   0.00000  20.00000
-15.23924   0.00000  20.00000
-15.19520   0.00000  20.00000
-15.15115   0.00000  20.00000
-15.10711   0.00000  20.00000
-15.06306   0.00000  20.00000
-15.01902   0.00000  20.00000
-14.97497   0.00000  20.00000
-14.93093   0.00000  20.00000
-14.88689   0.00000  20.00000
-14.84284   0.00000  20.00000
-14.79880   0.00000  20.00000
-14.75475   0.00000  20.00000
-14.71071   0.00000  20.00000
-14.66667   0.00000  20.00000
-14.62262   0.00000  20.00000
-14.57858   0.00000  20.00000
-14.53453   0.00000  20.00000
-14.49049   0.00000  20.00000
-14.44645   0.00000  20.00000
-14.40240   0.00000  20.00000
-14.35836   0.00000  20.00000
-14.31431   0.00000  20.00000
-14.27027   0.00000  20.00000
-14.22623   0.00000  20.00000
-14.18218   0.00000  20.00000
-14.13814   0.00000  20.00000
-14.09409   0.00000  20.00000
-14.05005   0.00000  20.00000
-14.00601   0.00000  20.00000
-13.96196   0.00000  20.00000
-13.91792   0.00000  20.00000
-13.87387   0.00000  20.00000
-13.82983   0.00000  20.00000
-13.78579   0.00000  20.00000
-13.74174   0.00000  20.00000
-13.69770   0.00000  20.00000
-13.65365   0.00000  20.00000
-13.60961   0.00000  20.00000
-13.56557   0.00000  20.00000
-13.52152   0.00000  20.00000
-13.47748   0.00000  20.00000
-13.43343   0.00000  20.00000
-13.38939   0.00000  20.00000
-13.34535   0.00000  20.00000
-13.30130   0.00000  20.00000
-13.25726   0.00000  20.00000
-13.21321   0.00000  20.00000
-13.16917   0.00000  20.00000
-13.12513   0.00000  20.00000
-13.08108   0.00000  20.00000
-13.03704   0.00000  20.00000
-12.99299   0.00000  20.00000
-12.94895   0.00000  20.00000
-12.90490   0.00000  20.00000
-12.86086   0.00000  20.00000
-12.81682   0.00000  20.00000
-12.77277   0.00000  20.00000
-12.72873   0.00000  20.00000
-12.68468   0.00000  20.00000
-12.64064   0.00000  20.00000
-12.59660   0.00000  20.00000
-12.55255   0.00000  20.00000
-12.50851   0.00000  20.00000
-12.46446   0.00000  20.00000
-12.42042   0.00001  20.00000
-12.37638   0.00003  20.00000
-12.33233   0.00009  20.00001
-12.28829   0.00031  20.00002
-12.24424   0.00092  20.00006
-12.20020   0.00251  20.00017
-12.15616   0.00626  20.00045
-12.11211   0.01434  20.00108
-12.06807   0.03011  20.00240
-12.02402   0.05812  20.00496
-11.97998   0.10336  20.00952
-11.93594   0.16978  20.01699
-11.89189   0.25846  20.02838
-11.84785   0.36619  20.04451
-11.80380   0.48527  20.06588
-11.75976   0.60516  20.09253
-11.71572   0.71526  20.12403
-11.67167   0.80773  20.15961
-11.62763   0.87916  20.19833
-11.58358   0.93046  20.23931
-11.53954   0.96551  20.28184
-11.49550   0.98926  20.32541
-11.45145   1.00633  20.36973
-11.40741   1.02022  20.41467
-11.36336   1.03330  20.46018
-11.31932   1.04700  20.50629
-11.27528   1.06221  20.55308
-11.23123   1.07965  20.60063
-11.18719   1.10006  20.64908
-11.14314   1.12440  20.69860
-11.09910   1.15389  20.74942
-11.05506   1.18997  20.80184
-11.01101   1.23407  20.85619
-10.96697   1.28701  20.91287
-10.92292   1.34801  20.97225
-10.87888   1.41360  21.03451
-10.83483   1.47700  21.09956
-10.79079   1.52878  21.16689
-10.74675   1.55892  21.23556
-10.70270   1.55972  21.30425
-10.65866   1.52849  21.37157
-10.61461   1.46855  21.43625
-10.57057   1.38818  21.49739
-10.52653   1.29789  21.55456
-10.48248   1.20737  21.60774
-10.43844   1.12330  21.65721
-10.39439   1.04849  21.70339
-10.35035   0.98219  21.74665
-10.30631   0.92097  21.78721
-10.26226   0.85978  21.82508
-10.21822   0.79308  21.86001
-10.17417   0.71627  21.89156
-10.13013   0.62721  21.91918
-10.08609   0.52735  21.94241
-10.04204   0.42191  21.96099
 -9.99800   0.31864  21.97503
 -9.95395   0.22564  21.98497
 -9.90991   0.14898  21.99153
 -9.86587   0.09129  21.99555
 -9.82182   0.05173  21.99783
 -9.77778   0.02703  21.99902
 -9.73373   0.01299  21.99959
 -9.68969   0.00573  21.99984
 -9.64565   0.00232  21.99994
 -9.60160   0.00088  21.99998
 -9.55756   0.00036  22.00000
 -9.51351   0.00033  22.00001
 -9.46947   0.00075  22.00005
 -9.42543   0.00199  22.00013
 -9.38138   0.00502  22.00036
 -9.33734   0.01164  22.00087
 -9.29329   0.02480  22.00196
 -9.24925   0.04864  22.00410
 -9.20521   0.08799  22.00798
 -9.16116   0.14713  22.01446
 -9.11712   0.22804  22.02450
 -9.07307   0.32886  22.03899
 -9.02903   0.44350  22.05852
 -8.98498   0.56301  22.08332
 -8.94094   0.67840  22.11320
 -8.89690   0.78340  22.14770
 -8.85285   0.87571  22.18627
 -8.80881   0.95625  22.22839
 -8.76476   1.02740  22.27364
 -8.72072   1.09207  22.32174
 -8.67668   1.15422  22.37257
 -8.63263   1.22004  22.42631
 -8.58859   1.29732  22.48345
 -8.54454   1.39207  22.54476
 -8.50050   1.50316  22.61097
 -8.45646   1.61863  22.68226
 -8.41241   1.71697  22.75788
 -8.36837   1.77428  22.83603
 -8.32432   1.77415  22.91417
 -8.28028   1.71485  22.98970
 -8.23624   1.60934  23.06058
 -8.19219   1.47806  23.12568
 -8.14815   1.33927  23.18467
 -8.10410   1.20286  23.23764
 -8.06006   1.07119  23.28482
 -8.01602   0.94475  23.32643
 -7.97197   0.82769  23.36289
 -7.92793   0.72868  23.39498
 -7.88388   0.65665  23.42390
 -7.83984   0.61493  23.45099
 -7.79580   0.59796  23.47733
 -7.75175   0.59299  23.50344
 -7.70771   0.58569  23.52924
 -7.66366   0.56656  23.55419
 -7.61962   0.53461  23.57774
 -7.57558   0.49662  23.59961
 -7.53153   0.46266  23.61999
 -7.48749   0.44056  23.63939
 -7.44344   0.43210  23.65843
 -7.39940   0.43266  23.67748
 -7.35536   0.43400  23.69660
 -7.31131   0.42862  23.71547
 -7.26727   0.41335  23.73368
 -7.22322   0.39054  23.75088
 -7.17918   0.36631  23.76701
 -7.13514   0.34708  23.78230
 -7.09109   0.33618  23.79711
 -7.04705   0.33247  23.81175
 -7.00300   0.33144  23.82635
 -6.95896   0.32807  23.84080
 -6.91491   0.31952  23.85487
 -6.87087   0.30632  23.86836
 -6.82683   0.29155  23.88120
 -6.78278   0.27864  23.89348
 -6.73874   0.26932  23.90534
 -6.69469   0.26285  23.91692
 -6.65065   0.25680  23.92823
 -6.60661   0.24859  23.93917
 -6.56256   0.23664  23.94960
 -6.51852   0.22060  23.95931
 -6.47447   0.20071  23.96815
 -6.43043   0.17738  23.97597
 -6.38639   0.15115  23.98262
 -6.34234   0.12303  23.98804
 -6.29830   0.09476  23.99222
 -6.25425   0.06849  23.99523
 -6.21021   0.04616  23.99726
 -6.16617   0.02886  23.99854
 -6.12212   0.01669  23.99927
 -6.07808   0.00890  23.99966
 -6.03403   0.00437  23.99986
 -5.98999   0.00198  23.99994
 -5.94595   0.00082  23.99998
 -5.90190   0.00031  23.99999
 -5.85786   0.00011  24.00000
 -5.81381   0.00004  24.00000
 -5.76977   0.00001  24.00000
 -5.72573   0.00000  24.00000
 -5.68168   0.00000  24.00000
 -5.63764   0.00000  24.00000
 -5.59359   0.00000  24.00000
 -5.54955   0.00000  24.00000
 -5.50551   0.00000  24.00000
 -5.46146   0.00000  24.00000
 -5.41742   0.00000  24.00000
 -5.37337   0.00000  24.00000
 -5.32933   0.00000  24.00000
 -5.28529   0.00000  24.00000
 -5.24124   0.00000  24.00000
 -5.19720   0.00000  24.00000
 -5.15315   0.00000  24.00000
 -5.10911   0.00000  24.00000
 -5.06507   0.00000  24.00000
 -5.02102   0.00000  24.00000
 -4.97698   0.00001  24.00000
 -4.93293   0.00002  24.00000
 -4.88889   0.00009  24.00001
 -4.84484   0.00028  24.00002
 -4.80080   0.00082  24.00005
 -4.75676   0.00221  24.00015
 -4.71271   0.00541  24.00039
 -4.66867   0.01218  24.00093
 -4.62462   0.02515  24.00203
 -4.58058   0.04776  24.00414
 -4.53654   0.08358  24.00782
 -4.49249   0.13520  24.01377
 -4.44845   0.20284  24.02271
 -4.40440   0.28348  24.03519
 -4.36036   0.37108  24.05154
 -4.31632   0.45790  24.07170
 -4.27227   0.53654  24.09534
 -4.22823   0.60174  24.12184
 -4.18418   0.65134  24.15053
 -4.14014   0.68619  24.18075
 -4.09610   0.70942  24.21199
 -4.05205   0.72520  24.24393
 -4.00801   0.73717  24.27640
 -3.96396   0.74725  24.30931
 -3.91992   0.75536  24.34258
 -3.87588   0.76065  24.37609
 -3.83183   0.76332  24.40971
 -3.78779   0.76578  24.44343
 -3.74374   0.77151  24.47741
 -3.69970   0.78260  24.51188
 -3.65566   0.79766  24.54701
 -3.61161   0.81211  24.58278
 -3.56757   0.82093  24.61894
 -3.52352   0.82210  24.65515
 -3.47948   0.81816  24.69118
 -3.43544   0.81471  24.72707
 -3.39139   0.81713  24.76306
 -3.34735   0.82772  24.79951
 -3.30330   0.84528  24.83674
 -3.25926   0.86676  24.87492
 -3.21522   0.88907  24.91408
 -3.17117   0.90957  24.95414
 -3.12713   0.92533  24.99489
 -3.08308   0.93325  25.03600
 -3.03904   0.93220  25.07705
 -2.99499   0.92628  25.11785
 -2.95095   0.92638  25.15865
 -2.90691   0.94768  25.20039
 -2.86286   1.00376  25.24460
 -2.81882   1.10034  25.29307
 -2.77477   1.23232  25.34734
 -2.73073   1.38582  25.40838
 -2.68669   1.54332  25.47635
 -2.64264   1.68909  25.55075
 -2.59860   1.81238  25.63057
 -2.55455   1.90817  25.71462
 -2.51051   1.97674  25.80168
 -2.46647   2.02296  25.89078
 -2.42242   2.05490  25.98129
 -2.37838   2.08124  26.07295
 -2.33433   2.10754  26.16578
 -2.29029   2.13354  26.25975
 -2.24625   2.15358  26.35460
 -2.20220   2.16036  26.44975
 -2.15816   2.14989  26.54444
 -2.11411   2.12402  26.63799
 -2.07007   2.08914  26.73000
 -2.02603   2.05257  26.82041
 -1.98198   2.01991  26.90937
 -1.93794   1.99568  26.99727
 -1.89389   1.98578  27.08473
 -1.84985   1.99867  27.17276
 -1.80581   2.04278  27.26273
 -1.76176   2.12126  27.35616
 -1.71772   2.22771  27.45428
 -1.67367   2.34644  27.55763
 -1.62963   2.45769  27.66587
 -1.58559   2.54473  27.77795
 -1.54154   2.59867  27.89241
 -1.49750   2.61892  28.00776
 -1.45345   2.60990  28.12271
 -1.40941   2.57706  28.23621
 -1.36537   2.52406  28.34738
 -1.32132   2.45187  28.45537
 -1.27728   2.35907  28.55928
 -1.23323   2.24280  28.65806
 -1.18919   2.10046  28.75057
 -1.14515   1.93213  28.83567
 -1.10110   1.74298  28.91244
 -1.05706   1.54406  28.98044
 -1.01301   1.35065  29.03993
 -0.96897   1.17858  29.09184
 -0.92492   1.04028  29.13766
 -0.88088   0.94199  29.17915
 -0.83684   0.88271  29.21803
 -0.79279   0.85490  29.25568
 -0.74875   0.84678  29.29298
 -0.70470   0.84600  29.33024
 -0.66066   0.84386  29.36740
 -0.61662   0.83845  29.40433
 -0.57257   0.83513  29.44111
 -0.52853   0.84375  29.47828
 -0.48448   0.87370  29.51676
 -0.44044   0.92892  29.55767
 -0.39640   1.00456  29.60192
 -0.35235   1.08677  29.64978
 -0.30831   1.15559  29.70068
 -0.26426   1.19084  29.75313
 -0.22022   1.17945  29.80508
 -0.17618   1.12142  29.85447
 -0.13213   1.03138  29.89989
 -0.08809   0.93393  29.94103
 -0.04404   0.85460  29.97867
  0.00000   0.81069  30.01437
  0.04404   0.80677  30.04991
  0.08809   0.83631  30.08674
  0.13213   0.88750  30.12583
  0.17618   0.94941  30.16765
  0.22022   1.01524  30.21236
  0.26426   1.08238  30.26003
  0.30831   1.15111  30.31073
  0.35235   1.22383  30.36464
  0.39640   1.30494  30.42211
  0.44044   1.39975  30.48376
  0.48448   1.51104  30.55031
  0.52853   1.63408  30.62229
  0.57257   1.75375  30.69953
  0.61662   1.84702  30.78088
  0.66066   1.89104  30.86417
  0.70470   1.87287  30.94666
  0.74875   1.79491  31.02571
  0.79279   1.67262  31.09938
  0.83684   1.52680  31.16663
  0.88088   1.37569  31.22722
  0.92492   1.23204  31.28148
  0.96897   1.10537  31.33017
  1.01301   1.00539  31.37445
  1.05706   0.94262  31.41596
  1.10110   0.92474  31.45669
  1.14515   0.95162  31.49861
  1.18919   1.01321  31.54323
  1.23323   1.09253  31.59135
  1.27728   1.17261  31.64300
  1.32132   1.24322  31.69775
  1.36537   1.30335  31.75516
  1.40941   1.35811  31.81498
  1.45345   1.41229  31.87718
  1.49750   1.46497  31.94170
  1.54154   1.50873  32.00815
  1.58559   1.53373  32.07570
  1.62963   1.53346  32.14324
  1.67367   1.50876  32.20970
  1.71772   1.46783  32.27434
  1.76176   1.42293  32.33702
  1.80581   1.38561  32.39804
  1.84985   1.36230  32.45805
  1.89389   1.35140  32.51757
  1.93794   1.34305  32.57672
  1.98198   1.32221  32.63496
  2.02603   1.27434  32.69108
  2.07007   1.19188  32.74358
  2.11411   1.07856  32.79108
  2.15816   0.94967  32.83291
  2.20220   0.82815  32.86938
  2.24625   0.73769  32.90187
  2.29029   0.69524  32.93250
  2.33433   0.70563  32.96357
  2.37838   0.76066  32.99708
  2.42242   0.84322  33.03422
  2.46647   0.93461  33.07538
  2.51051   1.02137  33.12036
  2.55455   1.09802  33.16873
  2.59860   1.16490  33.22003
  2.64264   1.22322  33.27391
  2.68669   1.27088  33.32988
  2.73073   1.30203  33.38723
  2.77477   1.31042  33.44495
  2.81882   1.29471  33.50197
  2.86286   1.26233  33.55757
  2.90691   1.22934  33.61171
  2.95095   1.21522  33.66524
  2.99499   1.23447  33.71961
  3.03904   1.28875  33.77637
  3.08308   1.36404  33.83645
  3.12713   1.43508  33.89965
  3.17117   1.47547  33.96464
  3.21522   1.46891  34.02934
  3.25926   1.41585  34.09170
  3.30330   1.33256  34.15039
  3.34735   1.24336  34.20515
  3.39139   1.17025  34.25669
  3.43544   1.12492  34.30624
  3.47948   1.10662  34.35498
  3.52352   1.10543  34.40367
  3.56757   1.10842  34.45249
  3.61161   1.10502  34.50116
  3.65566   1.08995  34.54916
  3.69970   1.06337  34.59600
  3.74374   1.02966  34.64135
  3.78779   0.99576  34.68521
  3.83183   0.96942  34.72790
  3.87588   0.95713  34.77006
  3.91992   0.96192  34.81243
  3.96396   0.98157  34.85566
  4.00801   1.00866  34.90008
  4.05205   1.03305  34.94558
  4.09610   1.04579  34.99164
  4.14014   1.04225  35.03755
  4.18418   1.02288  35.08260
  4.22823   0.99150  35.12627
  4.27227   0.95334  35.16826
  4.31632   0.91438  35.20853
  4.36036   0.88222  35.24739
  4.40440   0.86657  35.28556
  4.44845   0.87771  35.32421
  4.49249   0.92258  35.36485
  4.53654   1.00033  35.40891
  4.58058   1.09956  35.45734
  4.62462   1.19934  35.51016
  4.66867   1.27458  35.56630
  4.71271   1.30403  35.62373
  4.75676   1.27782  35.68001
  4.80080   1.20071  35.73290
  4.84484   1.08923  35.78087
  4.88889   0.96398  35.82333
  4.93293   0.84114  35.86037
  4.97698   0.72759  35.89242
  5.02102   0.62190  35.91981
  5.06507   0.51927  35.94268
  5.10911   0.41710  35.96105
  5.15315   0.31755  35.97504
  5.19720   0.22642  35.98501
  5.24124   0.14988  35.99161
  5.28529   0.09157  35.99565
  5.32933   0.05143  35.99791
  5.37337   0.02649  35.99908
  5.41742   0.01248  35.99963
  5.46146   0.00538  35.99987
  5.50551   0.00212  35.99996
  5.54955   0.00076  35.99999
  5.59359   0.00025  36.00000
  5.63764   0.00007  36.00001
  5.68168   0.00002  36.00001
  5.72573   0.00000  36.00001
  5.76977   0.00000  36.00001
  5.81381   0.00000  36.00001
  5.85786   0.00000  36.00001
  5.90190   0.00000  36.00001
  5.94595   0.00000  36.00001
  5.98999   0.00000  36.00001
  6.03403   0.00000  36.00001
  6.07808   0.00000  36.00001
  6.12212   0.00000  36.00001
  6.16617   0.00000  36.00001
  6.21021  -0.00000  36.00001
  6.25425   0.00000  36.00001
  6.29830   0.00000  36.00001
  6.34234   0.00000  36.00001
  6.38639   0.00000  36.00001
  6.43043   0.00000  36.00001
  6.47447   0.00000  36.00001