
     Program PWSCF v.6.1 (svn rev. 13369) starts on 20Sep2020 at 13:22:46 

     This program is part of the open-source Quantum ESPRESSO suite
     for quantum simulation of materials; please cite
         "P. Giannozzi et al., J. Phys.:Condens. Matter 21 395502 (2009);
          URL http://www.quantum-espresso.org", 
     in publications or presentations arising from this work. More details at
     http://www.quantum-espresso.org/quote

     Serial version
     Waiting for input...
     Reading input from standard input
Warning: card &IONS ignored
Warning: card / ignored
Warning: card &CELL ignored
Warning: card  CELL_DOFREE='2DXY' ignored
Warning: card / ignored

     Current dimensions of program PWSCF are:
     Max number of different atomic species (ntypx) = 10
     Max number of k-points (npk) =  40000
     Max angular momentum in pseudopotentials (lmaxx) =  3
               file Pb.UPF: wavefunction(s)  6S 6P 5D renormalized
               file Te.UPF: wavefunction(s)  5S 5P 4D renormalized

     G-vector sticks info
     --------------------
     sticks:   dense  smooth     PW     G-vecs:    dense   smooth      PW
     Sum        1361     889    261               113677    61663    9779


     Title: 
      PbTe_PZ                                                                   


     bravais-lattice index     =            0
     lattice parameter (alat)  =       8.2406  a.u.
     unit-cell volume          =    1682.7389 (a.u.)^3
     number of atoms/cell      =            2
     number of atomic types    =            2
     number of electrons       =        30.00
     number of Kohn-Sham states=           20
     kinetic-energy cutoff     =      42.0000  Ry
     charge density cutoff     =     252.0000  Ry
     convergence threshold     =      1.0E-08
     mixing beta               =       0.7000
     number of iterations used =            8  plain     mixing
     Exchange-correlation      =  SLA  PW   PBX  PBC ( 1  4  3  4 0 0)

     celldm(1)=   8.240570  celldm(2)=   0.000000  celldm(3)=   0.000000
     celldm(4)=   0.000000  celldm(5)=   0.000000  celldm(6)=   0.000000

     crystal axes: (cart. coord. in units of alat)
               a(1) = (   1.000000   0.000000   0.000000 )  
               a(2) = (   0.000000   1.000000   0.000000 )  
               a(3) = (   0.000000   0.000000   3.007080 )  

     reciprocal axes: (cart. coord. in units 2 pi/alat)
               b(1) = (  1.000000  0.000000  0.000000 )  
               b(2) = (  0.000000  1.000000  0.000000 )  
               b(3) = (  0.000000  0.000000  0.332549 )  


     PseudoPot. # 1 for Pb read from file:
     ./Pb.UPF
     MD5 check sum: 6028b95c5a6d19f69fe660acfe6aaac3
     Pseudo is Projector augmented-wave + core cor, Zval = 14.0
     Generated using "atomic" code by A. Dal Corso  v.6.3
     Shape of augmentation charge: PSQ
     Using radial grid of 1281 points,  6 beta functions with: 
                l(1) =   0
                l(2) =   0
                l(3) =   1
                l(4) =   1
                l(5) =   2
                l(6) =   2
     Q(r) pseudized with 0 coefficients 


     PseudoPot. # 2 for Te read from file:
     ./Te.UPF
     MD5 check sum: aca3ac145373e32ea850d75d9135ff66
     Pseudo is Projector augmented-wave + core cor, Zval = 16.0
     Generated using "atomic" code by A. Dal Corso  v.5.0.2 svn rev. 9415
     Shape of augmentation charge: PSQ
     Using radial grid of 1245 points,  6 beta functions with: 
                l(1) =   0
                l(2) =   0
                l(3) =   1
                l(4) =   1
                l(5) =   2
                l(6) =   2
     Q(r) pseudized with 0 coefficients 


     atomic species   valence    mass     pseudopotential
        Pb            14.00   207.20000     Pb( 1.00)
        Te            16.00   127.60000     Te( 1.00)

     No symmetry found



   Cartesian axes

     site n.     atom                  positions (alat units)
         1           Pb  tau(   1) = (   0.0000000   0.0000000   0.0000000  )
         2           Te  tau(   2) = (   0.5000000   0.5000000   0.0000000  )

     number of k points=   400

     Number of k-points >= 100: set verbosity='high' to print them.

     Dense  grid:   113677 G-vectors     FFT dimensions: (  45,  45, 125)

     Smooth grid:    61663 G-vectors     FFT dimensions: (  36,  36, 108)

     Estimated max dynamical RAM per process >    1034.16MB

     Check: negative/imaginary core charge=   -0.000011    0.000000

     Initial potential from superposition of free atoms

     starting charge   29.99743, renormalised to   30.00000

     negative rho (up, down):  9.369E-05 0.000E+00
     Starting wfc are   18 randomized atomic wfcs +    2 random wfc

     total cpu time spent up to now is       61.3 secs

     per-process dynamical memory:  1036.8 Mb

     Self-consistent Calculation

     iteration #  1     ecut=    42.00 Ry     beta=0.70
     Davidson diagonalization with overlap
     ethr =  1.00E-02,  avg # of iterations =  6.4

     Threshold (ethr) on eigenvalues was too large:
     Diagonalizing with lowered threshold

     Davidson diagonalization with overlap
     ethr =  3.15E-04,  avg # of iterations =  3.9

     negative rho (up, down):  1.241E-04 0.000E+00

     total cpu time spent up to now is      433.3 secs

     total energy              =   -1382.70551205 Ry
     Harris-Foulkes estimate   =   -1382.76973000 Ry
     estimated scf accuracy    <       0.09472168 Ry

     iteration #  2     ecut=    42.00 Ry     beta=0.70
     Davidson diagonalization with overlap
     ethr =  3.16E-04,  avg # of iterations =  4.7

     negative rho (up, down):  1.282E-04 0.000E+00

     total cpu time spent up to now is      631.1 secs

     total energy              =   -1382.71967242 Ry
     Harris-Foulkes estimate   =   -1382.76160295 Ry
     estimated scf accuracy    <       0.08209966 Ry

     iteration #  3     ecut=    42.00 Ry     beta=0.70
     Davidson diagonalization with overlap
     ethr =  2.74E-04,  avg # of iterations =  2.0

     negative rho (up, down):  1.250E-04 0.000E+00

     total cpu time spent up to now is      791.6 secs

     total energy              =   -1382.73985266 Ry
     Harris-Foulkes estimate   =   -1382.74057042 Ry
     estimated scf accuracy    <       0.00208854 Ry

     iteration #  4     ecut=    42.00 Ry     beta=0.70
     Davidson diagonalization with overlap
     ethr =  6.96E-06,  avg # of iterations =  6.7

     negative rho (up, down):  1.269E-04 0.000E+00

     total cpu time spent up to now is     1010.6 secs

     total energy              =   -1382.74044679 Ry
     Harris-Foulkes estimate   =   -1382.74045478 Ry
     estimated scf accuracy    <       0.00002489 Ry

     iteration #  5     ecut=    42.00 Ry     beta=0.70
     Davidson diagonalization with overlap
     ethr =  8.30E-08,  avg # of iterations =  3.2

     negative rho (up, down):  1.275E-04 0.000E+00

     total cpu time spent up to now is     1211.4 secs

     total energy              =   -1382.74045485 Ry
     Harris-Foulkes estimate   =   -1382.74045483 Ry
     estimated scf accuracy    <       0.00000216 Ry

     iteration #  6     ecut=    42.00 Ry     beta=0.70
     Davidson diagonalization with overlap
     ethr =  7.21E-09,  avg # of iterations =  2.3

     negative rho (up, down):  1.277E-04 0.000E+00

     total cpu time spent up to now is     1395.3 secs

     total energy              =   -1382.74045555 Ry
     Harris-Foulkes estimate   =   -1382.74045553 Ry
     estimated scf accuracy    <       0.00000034 Ry

     iteration #  7     ecut=    42.00 Ry     beta=0.70
     Davidson diagonalization with overlap
     ethr =  1.13E-09,  avg # of iterations =  2.4

     negative rho (up, down):  1.278E-04 0.000E+00

     total cpu time spent up to now is     1576.4 secs

     total energy              =   -1382.74045558 Ry
     Harris-Foulkes estimate   =   -1382.74045561 Ry
     estimated scf accuracy    <       0.00000007 Ry

     iteration #  8     ecut=    42.00 Ry     beta=0.70
     Davidson diagonalization with overlap
     ethr =  2.27E-10,  avg # of iterations =  2.1

     negative rho (up, down):  1.278E-04 0.000E+00

     total cpu time spent up to now is     1750.7 secs

     total energy              =   -1382.74045559 Ry
     Harris-Foulkes estimate   =   -1382.74045560 Ry
     estimated scf accuracy    <       0.00000002 Ry

     iteration #  9     ecut=    42.00 Ry     beta=0.70
     Davidson diagonalization with overlap
     ethr =  7.88E-11,  avg # of iterations =  2.0

     negative rho (up, down):  1.278E-04 0.000E+00

     total cpu time spent up to now is     1910.3 secs

     End of self-consistent calculation

     Number of k-points >= 100: set verbosity='high' to print the bands.

     highest occupied, lowest unoccupied level (ev):    -0.4095   -0.3939

!    total energy              =   -1382.74045559 Ry
     Harris-Foulkes estimate   =   -1382.74045559 Ry
     estimated scf accuracy    <          3.7E-10 Ry

     total all-electron energy =    -55353.257405 Ry

     The total energy is the sum of the following terms:

     one-electron contribution =    -621.00951407 Ry
     hartree contribution      =     324.71932164 Ry
     xc contribution           =     -78.45702427 Ry
     ewald contribution        =      42.16010428 Ry
     one-center paw contrib.   =   -1050.15334316 Ry

     convergence has been achieved in   9 iterations

     negative rho (up, down):  1.278E-04 0.000E+00

     Forces acting on atoms (cartesian axes, Ry/au):

     atom    1 type  1   force =    -0.00000537    0.00000135    0.00003298
     atom    2 type  2   force =     0.00000537   -0.00000135   -0.00003298

     Total force =     0.000047     Total SCF correction =     0.000020
     SCF correction compared to forces is large: reduce conv_thr to get better values


     Computing stress (Cartesian axis) and pressure


     negative rho (up, down):  1.278E-04 0.000E+00
          total   stress  (Ry/bohr**3)                   (kbar)     P=    0.61
   0.00003807  -0.00000000   0.00000000          5.60     -0.00      0.00
  -0.00000000   0.00003807  -0.00000000         -0.00      5.60     -0.00
   0.00000000  -0.00000000  -0.00006377          0.00     -0.00     -9.38


     Writing output data file pbte.save

     init_run     :     60.16s CPU     60.73s WALL (       1 calls)
     electrons    :   1843.75s CPU   1849.06s WALL (       1 calls)
     forces       :     20.96s CPU     21.12s WALL (       1 calls)
     stress       :     48.45s CPU     49.09s WALL (       1 calls)

     Called by init_run:
     wfcinit      :     56.81s CPU     57.14s WALL (       1 calls)
     potinit      :      0.90s CPU      0.92s WALL (       1 calls)

     Called by electrons:
     c_bands      :   1591.63s CPU   1593.56s WALL (      10 calls)
     sum_band     :    242.66s CPU    244.56s WALL (      10 calls)
     v_of_rho     :      1.79s CPU      1.82s WALL (      10 calls)
     newd         :      4.57s CPU      6.23s WALL (      10 calls)
     PAW_pot      :      3.80s CPU      3.81s WALL (      10 calls)
     mix_rho      :      0.21s CPU      0.21s WALL (      10 calls)

     Called by c_bands:
     init_us_2    :     32.40s CPU     32.50s WALL (    9200 calls)
     cegterg      :   1535.69s CPU   1537.52s WALL (    4000 calls)

     Called by sum_band:
     sum_band:bec :      0.13s CPU      0.13s WALL (    4000 calls)
     addusdens    :      5.69s CPU      7.34s WALL (      10 calls)

     Called by *egterg:
     h_psi        :   1103.92s CPU   1105.46s WALL (   18718 calls)
     s_psi        :    102.58s CPU    102.71s WALL (   18718 calls)
     g_psi        :      6.04s CPU      6.06s WALL (   14318 calls)
     cdiaghg      :     15.79s CPU     15.82s WALL (   17918 calls)

     Called by h_psi:
     h_psi:pot    :   1098.41s CPU   1099.91s WALL (   18718 calls)
     h_psi:calbec :    104.51s CPU    104.62s WALL (   18718 calls)
     vloc_psi     :    892.13s CPU    893.45s WALL (   18718 calls)
     add_vuspsi   :    101.62s CPU    101.75s WALL (   18718 calls)

     General routines
     calbec       :    165.35s CPU    165.53s WALL (   24718 calls)
     fft          :      1.44s CPU      1.45s WALL (     185 calls)
     ffts         :      0.07s CPU      0.07s WALL (      20 calls)
     fftw         :    943.52s CPU    944.86s WALL (  494694 calls)
     interpolate  :      0.25s CPU      0.25s WALL (      20 calls)


     PWSCF        : 32m56.34s CPU    33m 3.74s WALL


   This run was terminated on:  13:55:50  20Sep2020            

=------------------------------------------------------------------------------=
   JOB DONE.
=------------------------------------------------------------------------------=
