ESCALE ; pCOOP file generated by LOBSTER. Energy is shifted such that the Fermi level lies at 0 eV.
        83          1       1001  -3.06851e+01   1.93650e+01  -6.55051e-01 
Average
No.1:Sn1->Te2(3.0086211201424202)
No.1:Sn1[5s]->Te2[5s](3.0086211201424202)
No.1:Sn1[5s]->Te2[5p_y](3.0086211201424202)
No.1:Sn1[5s]->Te2[5p_z](3.0086211201424202)
No.1:Sn1[5s]->Te2[5p_x](3.0086211201424202)
No.1:Sn1[5s]->Te2[4d_xy](3.0086211201424202)
No.1:Sn1[5s]->Te2[4d_yz](3.0086211201424202)
No.1:Sn1[5s]->Te2[4d_z^2](3.0086211201424202)
No.1:Sn1[5s]->Te2[4d_xz](3.0086211201424202)
No.1:Sn1[5s]->Te2[4d_x^2-y^2](3.0086211201424202)
No.1:Sn1[5p_y]->Te2[5s](3.0086211201424202)
No.1:Sn1[5p_y]->Te2[5p_y](3.0086211201424202)
No.1:Sn1[5p_y]->Te2[5p_z](3.0086211201424202)
No.1:Sn1[5p_y]->Te2[5p_x](3.0086211201424202)
No.1:Sn1[5p_y]->Te2[4d_xy](3.0086211201424202)
No.1:Sn1[5p_y]->Te2[4d_yz](3.0086211201424202)
No.1:Sn1[5p_y]->Te2[4d_z^2](3.0086211201424202)
No.1:Sn1[5p_y]->Te2[4d_xz](3.0086211201424202)
No.1:Sn1[5p_y]->Te2[4d_x^2-y^2](3.0086211201424202)
No.1:Sn1[5p_z]->Te2[5s](3.0086211201424202)
No.1:Sn1[5p_z]->Te2[5p_y](3.0086211201424202)
No.1:Sn1[5p_z]->Te2[5p_z](3.0086211201424202)
No.1:Sn1[5p_z]->Te2[5p_x](3.0086211201424202)
No.1:Sn1[5p_z]->Te2[4d_xy](3.0086211201424202)
No.1:Sn1[5p_z]->Te2[4d_yz](3.0086211201424202)
No.1:Sn1[5p_z]->Te2[4d_z^2](3.0086211201424202)
No.1:Sn1[5p_z]->Te2[4d_xz](3.0086211201424202)
No.1:Sn1[5p_z]->Te2[4d_x^2-y^2](3.0086211201424202)
No.1:Sn1[5p_x]->Te2[5s](3.0086211201424202)
No.1:Sn1[5p_x]->Te2[5p_y](3.0086211201424202)
No.1:Sn1[5p_x]->Te2[5p_z](3.0086211201424202)
No.1:Sn1[5p_x]->Te2[5p_x](3.0086211201424202)
No.1:Sn1[5p_x]->Te2[4d_xy](3.0086211201424202)
No.1:Sn1[5p_x]->Te2[4d_yz](3.0086211201424202)
No.1:Sn1[5p_x]->Te2[4d_z^2](3.0086211201424202)
No.1:Sn1[5p_x]->Te2[4d_xz](3.0086211201424202)
No.1:Sn1[5p_x]->Te2[4d_x^2-y^2](3.0086211201424202)
No.1:Sn1[4d_xy]->Te2[5s](3.0086211201424202)
No.1:Sn1[4d_xy]->Te2[5p_y](3.0086211201424202)
No.1:Sn1[4d_xy]->Te2[5p_z](3.0086211201424202)
No.1:Sn1[4d_xy]->Te2[5p_x](3.0086211201424202)
No.1:Sn1[4d_xy]->Te2[4d_xy](3.0086211201424202)
No.1:Sn1[4d_xy]->Te2[4d_yz](3.0086211201424202)
No.1:Sn1[4d_xy]->Te2[4d_z^2](3.0086211201424202)
No.1:Sn1[4d_xy]->Te2[4d_xz](3.0086211201424202)
No.1:Sn1[4d_xy]->Te2[4d_x^2-y^2](3.0086211201424202)
No.1:Sn1[4d_yz]->Te2[5s](3.0086211201424202)
No.1:Sn1[4d_yz]->Te2[5p_y](3.0086211201424202)
No.1:Sn1[4d_yz]->Te2[5p_z](3.0086211201424202)
No.1:Sn1[4d_yz]->Te2[5p_x](3.0086211201424202)
No.1:Sn1[4d_yz]->Te2[4d_xy](3.0086211201424202)
No.1:Sn1[4d_yz]->Te2[4d_yz](3.0086211201424202)
No.1:Sn1[4d_yz]->Te2[4d_z^2](3.0086211201424202)
No.1:Sn1[4d_yz]->Te2[4d_xz](3.0086211201424202)
No.1:Sn1[4d_yz]->Te2[4d_x^2-y^2](3.0086211201424202)
No.1:Sn1[4d_z^2]->Te2[5s](3.0086211201424202)
No.1:Sn1[4d_z^2]->Te2[5p_y](3.0086211201424202)
No.1:Sn1[4d_z^2]->Te2[5p_z](3.0086211201424202)
No.1:Sn1[4d_z^2]->Te2[5p_x](3.0086211201424202)
No.1:Sn1[4d_z^2]->Te2[4d_xy](3.0086211201424202)
No.1:Sn1[4d_z^2]->Te2[4d_yz](3.0086211201424202)
No.1:Sn1[4d_z^2]->Te2[4d_z^2](3.0086211201424202)
No.1:Sn1[4d_z^2]->Te2[4d_xz](3.0086211201424202)
No.1:Sn1[4d_z^2]->Te2[4d_x^2-y^2](3.0086211201424202)
No.1:Sn1[4d_xz]->Te2[5s](3.0086211201424202)
No.1:Sn1[4d_xz]->Te2[5p_y](3.0086211201424202)
No.1:Sn1[4d_xz]->Te2[5p_z](3.0086211201424202)
No.1:Sn1[4d_xz]->Te2[5p_x](3.0086211201424202)
No.1:Sn1[4d_xz]->Te2[4d_xy](3.0086211201424202)
No.1:Sn1[4d_xz]->Te2[4d_yz](3.0086211201424202)
No.1:Sn1[4d_xz]->Te2[4d_z^2](3.0086211201424202)
No.1:Sn1[4d_xz]->Te2[4d_xz](3.0086211201424202)
No.1:Sn1[4d_xz]->Te2[4d_x^2-y^2](3.0086211201424202)
No.1:Sn1[4d_x^2-y^2]->Te2[5s](3.0086211201424202)
No.1:Sn1[4d_x^2-y^2]->Te2[5p_y](3.0086211201424202)
No.1:Sn1[4d_x^2-y^2]->Te2[5p_z](3.0086211201424202)
No.1:Sn1[4d_x^2-y^2]->Te2[5p_x](3.0086211201424202)
No.1:Sn1[4d_x^2-y^2]->Te2[4d_xy](3.0086211201424202)
No.1:Sn1[4d_x^2-y^2]->Te2[4d_yz](3.0086211201424202)
No.1:Sn1[4d_x^2-y^2]->Te2[4d_z^2](3.0086211201424202)
No.1:Sn1[4d_x^2-y^2]->Te2[4d_xz](3.0086211201424202)
No.1:Sn1[4d_x^2-y^2]->Te2[4d_x^2-y^2](3.0086211201424202)
-30.03003   0.00000   0.00001   0.00000   0.00030   0.00000   0.00000   0.00000  -0.00000   0.00000  -0.00000   0.00000  -0.00000   0.00000   0.00005   0.00000  -0.00000   0.00000   0.00001   0.00000  -0.00000   0.00000  -0.00000   0.00000  -0.00000   0.00000  -0.00000   0.00000  -0.00000   0.00000  -0.00001   0.00000   0.00008   0.00000   0.00000   0.00000   0.00001   0.00000  -0.00000   0.00000   0.00002   0.00000  -0.00000   0.00000  -0.00000   0.00000  -0.00000   0.00000  -0.00000   0.00000   0.00000   0.00000   0.00002   0.00000   0.00000   0.00000   0.00002   0.00000  -0.00000   0.00000  -0.00000   0.00000  -0.00001   0.00000  -0.00000   0.00000  -0.00000   0.00000   0.00008   0.00000  -0.00000   0.00000   0.00001   0.00000   0.00000   0.00000   0.00002   0.00000   0.00000   0.00000   0.00000   0.00000  -0.00000   0.00000   0.00000   0.00000   0.00001   0.00000   0.00000   0.00000   0.00000   0.00000   0.00000   0.00000   0.00000   0.00000   0.00000   0.00000  -0.00000   0.00000   0.00000   0.00000   0.00000   0.00000   0.00000   0.00000   0.00000   0.00000   0.00000   0.00000   0.00000   0.00000  -0.00000   0.00000   0.00000   0.00000  -0.00000   0.00000  -0.00000   0.00000  -0.00000   0.00000   0.00000   0.00000   0.00000   0.00000   0.00000   0.00000   0.00000   0.00000   0.00000   0.00000  -0.00000   0.00000  -0.00000   0.00000   0.00000   0.00000  -0.00000   0.00000   0.00000   0.00000   0.00000   0.00000   0.00000   0.00000   0.00000   0.00000  -0.00000   0.00000   0.00000   0.00000  -0.00000   0.00000   0.00000   0.00000  -0.00000   0.00000   0.00000   0.00000  -0.00000   0.00000  -0.00000   0.00000  -0.00000   0.00000   0.00000
-29.97998   0.00000   0.00001   0.00000   0.00030   0.00000   0.00000   0.00000  -0.00000   0.00000  -0.00000   0.00000  -0.00000   0.00000   0.00005   0.00000  -0.00000   0.00000   0.00001   0.00000  -0.00000   0.00000  -0.00000   0.00000  -0.00000   0.00000  -0.00000   0.00000  -0.00000   0.00000  -0.00001   0.00000   0.00008   0.00000   0.00000   0.00000   0.00001   0.00000  -0.00000   0.00000   0.00002   0.00000  -0.00000   0.00000  -0.00000   0.00000  -0.00000   0.00000  -0.00000   0.00000   0.00000   0.00000   0.00002   0.00000   0.00000   0.00000   0.00002   0.00000  -0.00000   0.00000  -0.00000   0.00000  -0.00001   0.00000  -0.00000   0.00000  -0.00000   0.00000   0.00008   0.00000  -0.00000   0.00000   0.00001   0.00000   0.00000   0.00000   0.00002   0.00000   0.00000   0.00000   0.00000   0.00000  -0.00000   0.00000   0.00000   0.00000   0.00001   0.00000   0.00000   0.00000   0.00000   0.00000   0.00000   0.00000   0.00000   0.00000   0.00000   0.00000  -0.00000   0.00000   0.00000   0.00000   0.00000   0.00000   0.00000   0.00000   0.00000   0.00000   0.00000   0.00000   0.00000   0.00000  -0.00000   0.00000   0.00000   0.00000  -0.00000   0.00000  -0.00000   0.00000  -0.00000   0.00000   0.00000   0.00000   0.00000   0.00000   0.00000   0.00000   0.00000   0.00000   0.00000   0.00000  -0.00000   0.00000  -0.00000   0.00000   0.00000   0.00000  -0.00000   0.00000   0.00000   0.00000   0.00000   0.00000   0.00000   0.00000   0.00000   0.00000  -0.00000   0.00000   0.00000   0.00000  -0.00000   0.00000   0.00000   0.00000  -0.00000   0.00000   0.00000   0.00000  -0.00000   0.00000  -0.00000   0.00000  -0.00000   0.00000   0.00000
-29.92993   0.00000   0.00001   0.00000   0.00030   0.00000   0.00000   0.00000  -0.00000   0.00000  -0.00000   0.00000  -0.00000   0.00000   0.00005   0.00000  -0.00000   0.00000   0.00001   0.00000  -0.00000   0.00000  -0.00000   0.00000  -0.00000   0.00000  -0.00000   0.00000  -0.00000   0.00000  -0.00001   0.00000   0.00008   0.00000   0.00000   0.00000   0.00001   0.00000  -0.00000   0.00000   0.00002   0.00000  -0.00000   0.00000  -0.00000   0.00000  -0.00000   0.00000  -0.00000   0.00000   0.00000   0.00000   0.00002   0.00000   0.00000   0.00000   0.00002   0.00000  -0.00000   0.00000  -0.00000   0.00000  -0.00001   0.00000  -0.00000   0.00000  -0.00000   0.00000   0.00008   0.00000  -0.00000   0.00000   0.00001   0.00000   0.00000   0.00000   0.00002   0.00000   0.00000   0.00000   0.00000   0.00000  -0.00000   0.00000   0.00000   0.00000   0.00001   0.00000   0.00000   0.00000   0.00000   0.00000   0.00000   0.00000   0.00000   0.00000   0.00000   0.00000  -0.00000   0.00000   0.00000   0.00000   0.00000   0.00000   0.00000   0.00000   0.00000   0.00000   0.00000   0.00000   0.00000   0.00000  -0.00000   0.00000   0.00000   0.00000  -0.00000   0.00000  -0.00000   0.00000  -0.00000   0.00000   0.00000   0.00000   0.00000   0.00000   0.00000   0.00000   0.00000   0.00000   0.00000   0.00000  -0.00000   0.00000  -0.00000   0.00000   0.00000   0.00000  -0.00000   0.00000   0.00000   0.00000   0.00000   0.00000   0.00000   0.00000   0.00000   0.00000  -0.00000   0.00000   0.00000   0.00000  -0.00000   0.00000   0.00000   0.00000  -0.00000   0.00000   0.00000   0.00000  -0.00000   0.00000  -0.00000   0.00000  -0.00000   0.00000   0.00000
-29.87988   0.00000   0.00001   0.00000   0.00030   0.00000   0.00000   0.00000  -0.00000   0.00000  -0.00000   0.00000  -0.00000   0.00000   0.00005   0.00000  -0.00000   0.00000   0.00001   0.00000  -0.00000   0.00000  -0.00000   0.00000  -0.00000   0.00000  -0.00000   0.00000  -0.00000   0.00000  -0.00001   0.00000   0.00008   0.00000   0.00000   0.00000   0.00001   0.00000  -0.00000   0.00000   0.00002   0.00000  -0.00000   0.00000  -0.00000   0.00000  -0.00000   0.00000  -0.00000   0.00000   0.00000   0.00000   0.00002   0.00000   0.00000   0.00000   0.00002   0.00000  -0.00000   0.00000  -0.00000   0.00000  -0.00001   0.00000  -0.00000   0.00000  -0.00000   0.00000   0.00008   0.00000  -0.00000   0.00000   0.00001   0.00000   0.00000   0.00000   0.00002   0.00000   0.00000   0.00000   0.00000   0.00000  -0.00000   0.00000   0.00000   0.00000   0.00001   0.00000   0.00000   0.00000   0.00000   0.00000   0.00000   0.00000   0.00000   0.00000   0.00000   0.00000  -0.00000   0.00000   0.00000   0.00000   0.00000   0.00000   0.00000   0.00000   0.00000   0.00000   0.00000   0.00000   0.00000   0.00000  -0.00000   0.00000   0.00000   0.00000  -0.00000   0.00000  -0.00000   0.00000  -0.00000   0.00000   0.00000   0.00000   0.00000   0.00000   0.00000   0.00000   0.00000   0.00000   0.00000   0.00000  -0.00000   0.00000  -0.00000   0.00000   0.00000   0.00000  -0.00000   0.00000   0.00000   0.00000   0.00000   0.00000   0.00000   0.00000   0.00000   0.00000  -0.00000   0.00000   0.00000   0.00000  -0.00000   0.00000   0.00000   0.00000  -0.00000   0.00000   0.00000   0.00000  -0.00000   0.00000  -0.00000   0.00000  -0.00000   0.00000   0.00000
-29.82983   0.00000   0.00001   0.00000   0.00030   0.00000   0.00000   0.00000  -0.00000   0.00000  -0.00000   0.00000  -0.00000   0.00000   0.00005   0.00000  -0.00000   0.00000   0.00001   0.00000  -0.00000   0.00000  -0.00000   0.00000  -0.00000   0.00000  -0.00000   0.00000  -0.00000   0.00000  -0.00001   0.00000   0.00008   0.00000   0.00000   0.00000   0.00001   0.00000  -0.00000   0.00000   0.00002   0.00000  -0.00000   0.00000  -0.00000   0.00000  -0.00000   0.00000  -0.00000   0.00000   0.00000   0.00000   0.00002   0.00000   0.00000   0.00000   0.00002   0.00000  -0.00000   0.00000  -0.00000   0.00000  -0.00001   0.00000  -0.00000   0.00000  -0.00000   0.00000   0.00008   0.00000  -0.00000   0.00000   0.00001   0.00000   0.00000   0.00000   0.00002   0.00000   0.00000   0.00000   0.00000   0.00000  -0.00000   0.00000   0.00000   0.00000   0.00001   0.00000   0.00000   0.00000   0.00000   0.00000   0.00000   0.00000   0.00000   0.00000   0.00000   0.00000  -0.00000   0.00000   0.00000   0.00000   0.00000   0.00000   0.00000   0.00000   0.00000   0.00000   0.00000   0.00000   0.00000   0.00000  -0.00000   0.00000   0.00000   0.00000  -0.00000   0.00000  -0.00000   0.00000  -0.00000   0.00000   0.00000   0.00000   0.00000   0.00000   0.00000   0.00000   0.00000   0.00000   0.00000   0.00000  -0.00000   0.00000  -0.00000   0.00000   0.00000   0.00000  -0.00000   0.00000   0.00000   0.00000   0.00000   0.00000   0.00000   0.00000   0.00000   0.00000  -0.00000   0.00000   0.00000   0.00000  -0.00000   0.00000   0.00000   0.00000  -0.00000   0.00000   0.00000   0.00000  -0.00000   0.00000  -0.00000   0.00000  -0.00000   0.00000   0.00000
-29.77978   0.00000   0.00001   0.00000   0.00030   0.00000   0.00000   0.00000  -0.00000   0.00000  -0.00000   0.00000  -0.00000   0.00000   0.00005   0.00000  -0.00000   0.00000   0.00001   0.00000  -0.00000   0.00000  -0.00000   0.00000  -0.00000   0.00000  -0.00000   0.00000  -0.00000   0.00000  -0.00001   0.00000   0.00008   0.00000   0.00000   0.00000   0.00001   0.00000  -0.00000   0.00000   0.00002   0.00000  -0.00000   0.00000  -0.00000   0.00000  -0.00000   0.00000  -0.00000   0.00000   0.00000   0.00000   0.00002   0.00000   0.00000   0.00000   0.00002   0.00000  -0.00000   0.00000  -0.00000   0.00000  -0.00001   0.00000  -0.00000   0.00000  -0.00000   0.00000   0.00008   0.00000  -0.00000   0.00000   0.00001   0.00000   0.00000   0.00000   0.00002   0.00000   0.00000   0.00000   0.00000   0.00000  -0.00000   0.00000   0.00000   0.00000   0.00001   0.00000   0.00000   0.00000   0.00000   0.00000   0.00000   0.00000   0.00000   0.00000   0.00000   0.00000  -0.00000   0.00000   0.00000   0.00000   0.00000   0.00000   0.00000   0.00000   0.00000   0.00000   0.00000   0.00000   0.00000   0.00000  -0.00000   0.00000   0.00000   0.00000  -0.00000   0.00000  -0.00000   0.00000  -0.00000   0.00000   0.00000   0.00000   0.00000   0.00000   0.00000   0.00000   0.00000   0.00000   0.00000   0.00000  -0.00000   0.00000  -0.00000   0.00000   0.00000   0.00000  -0.00000   0.00000   0.00000   0.00000   0.00000   0.00000   0.00000   0.00000   0.00000   0.00000  -0.00000   0.00000   0.00000   0.00000  -0.00000   0.00000   0.00000   0.00000  -0.00000   0.00000   0.00000   0.00000  -0.00000   0.00000  -0.00000   0.00000  -0.00000   0.00000   0.00000
-29.72973   0.00000   0.00001   0.00000   0.00030   0.00000   0.00000   0.00000  -0.00000   0.00000  -0.00000   0.00000  -0.00000   0.00000   0.00005   0.00000  -0.00000   0.00000   0.00001   0.00000  -0.00000   0.00000  -0.00000   0.00000  -0.00000   0.00000  -0.00000   0.00000  -0.00000   0.00000  -0.00001   0.00000   0.00008   0.00000   0.00000   0.00000   0.00001   0.00000  -0.00000   0.00000   0.00002   0.00000  -0.00000   0.00000  -0.00000   0.00000  -0.00000   0.00000  -0.00000   0.00000   0.00000   0.00000   0.00002   0.00000   0.00000   0.00000   0.00002   0.00000  -0.00000   0.00000  -0.00000   0.00000  -0.00001   0.00000  -0.00000   0.00000  -0.00000   0.00000   0.00008   0.00000  -0.00000   0.00000   0.00001   0.00000   0.00000   0.00000   0.00002   0.00000   0.00000   0.00000   0.00000   0.00000  -0.00000   0.00000   0.00000   0.00000   0.00001   0.00000   0.00000   0.00000   0.00000   0.00000   0.00000   0.00000   0.00000   0.00000   0.00000   0.00000  -0.00000   0.00000   0.00000   0.00000   0.00000   0.00000   0.00000   0.00000   0.00000   0.00000   0.00000   0.00000   0.00000   0.00000  -0.00000   0.00000   0.00000   0.00000  -0.00000   0.00000  -0.00000   0.00000  -0.00000   0.00000   0.00000   0.00000   0.00000   0.00000   0.00000   0.00000   0.00000   0.00000   0.00000   0.00000  -0.00000   0.00000  -0.00000   0.00000   0.00000   0.00000  -0.00000   0.00000   0.00000   0.00000   0.00000   0.00000   0.00000   0.00000   0.00000   0.00000  -0.00000   0.00000   0.00000   0.00000  -0.00000   0.00000   0.00000   0.00000  -0.00000   0.00000   0.00000   0.00000  -0.00000   0.00000  -0.00000   0.00000  -0.00000   0.00000   0.00000
-29.67968   0.00000   0.00001   0.00000   0.00030   0.00000   0.00000   0.00000  -0.00000   0.00000  -0.00000   0.00000  -0.00000   0.00000   0.00005   0.00000  -0.00000   0.00000   0.00001   0.00000  -0.00000   0.00000  -0.00000   0.00000  -0.00000   0.00000  -0.00000   0.00000  -0.00000   0.00000  -0.00001   0.00000   0.00008   0.00000   0.00000   0.00000   0.00001   0.00000  -0.00000   0.00000   0.00002   0.00000  -0.00000   0.00000  -0.00000   0.00000  -0.00000   0.00000  -0.00000   0.00000   0.00000   0.00000   0.00002   0.00000   0.00000   0.00000   0.00002   0.00000  -0.00000   0.00000  -0.00000   0.00000  -0.00001   0.00000  -0.00000   0.00000  -0.00000   0.00000   0.00008   0.00000  -0.00000   0.00000   0.00001   0.00000   0.00000   0.00000   0.00002   0.00000   0.00000   0.00000   0.00000   0.00000  -0.00000   0.00000   0.00000   0.00000   0.00001   0.00000   0.00000   0.00000   0.00000   0.00000   0.00000   0.00000   0.00000   0.00000   0.00000   0.00000  -0.00000   0.00000   0.00000   0.00000   0.00000   0.00000   0.00000   0.00000   0.00000   0.00000   0.00000   0.00000   0.00000   0.00000  -0.00000   0.00000   0.00000   0.00000  -0.00000   0.00000  -0.00000   0.00000  -0.00000   0.00000   0.00000   0.00000   0.00000   0.00000   0.00000   0.00000   0.00000   0.00000   0.00000   0.00000  -0.00000   0.00000  -0.00000   0.00000   0.00000   0.00000  -0.00000   0.00000   0.00000   0.00000   0.00000   0.00000   0.00000   0.00000   0.00000   0.00000  -0.00000   0.00000   0.00000   0.00000  -0.00000   0.00000   0.00000   0.00000  -0.00000   0.00000   0.00000   0.00000  -0.00000   0.00000  -0.00000   0.00000  -0.00000   0.00000   0.00000
-29.62963   0.00000   0.00001   0.00000   0.00030   0.00000   0.00000   0.00000  -0.00000   0.00000  -0.00000   0.00000  -0.00000   0.00000   0.00005   0.00000  -0.00000   0.00000   0.00001   0.00000  -0.00000   0.00000  -0.00000   0.00000  -0.00000   0.00000  -0.00000   0.00000  -0.00000   0.00000  -0.00001   0.00000   0.00008   0.00000   0.00000   0.00000   0.00001   0.00000  -0.00000   0.00000   0.00002   0.00000  -0.00000   0.00000  -0.00000   0.00000  -0.00000   0.00000  -0.00000   0.00000   0.00000   0.00000   0.00002   0.00000   0.00000   0.00000   0.00002   0.00000  -0.00000   0.00000  -0.00000   0.00000  -0.00001   0.00000  -0.00000   0.00000  -0.00000   0.00000   0.00008   0.00000  -0.00000   0.00000   0.00001   0.00000   0.00000   0.00000   0.00002   0.00000   0.00000   0.00000   0.00000   0.00000  -0.00000   0.00000   0.00000   0.00000   0.00001   0.00000   0.00000   0.00000   0.00000   0.00000   0.00000   0.00000   0.00000   0.00000   0.00000   0.00000  -0.00000   0.00000   0.00000   0.00000   0.00000   0.00000   0.00000   0.00000   0.00000   0.00000   0.00000   0.00000   0.00000   0.00000  -0.00000   0.00000   0.00000   0.00000  -0.00000   0.00000  -0.00000   0.00000  -0.00000   0.00000   0.00000   0.00000   0.00000   0.00000   0.00000   0.00000   0.00000   0.00000   0.00000   0.00000  -0.00000   0.00000  -0.00000   0.00000   0.00000   0.00000  -0.00000   0.00000   0.00000   0.00000   0.00000   0.00000   0.00000   0.00000   0.00000   0.00000  -0.00000   0.00000   0.00000   0.00000  -0.00000   0.00000   0.00000   0.00000  -0.00000   0.00000   0.00000   0.00000  -0.00000   0.00000  -0.00000   0.00000  -0.00000   0.00000   0.00000
-29.57958   0.00000   0.00001   0.00000   0.00030   0.00000   0.00000   0.00000  -0.00000   0.00000  -0.00000   0.00000  -0.00000   0.00000   0.00005   0.00000  -0.00000   0.00000   0.00001   0.00000  -0.00000   0.00000  -0.00000   0.00000  -0.00000   0.00000  -0.00000   0.00000  -0.00000   0.00000  -0.00001   0.00000   0.00008   0.00000   0.00000   0.00000   0.00001   0.00000  -0.00000   0.00000   0.00002   0.00000  -0.00000   0.00000  -0.00000   0.00000  -0.00000   0.00000  -0.00000   0.00000   0.00000   0.00000   0.00002   0.00000   0.00000   0.00000   0.00002   0.00000  -0.00000   0.00000  -0.00000   0.00000  -0.00001   0.00000  -0.00000   0.00000  -0.00000   0.00000   0.00008   0.00000  -0.00000   0.00000   0.00001   0.00000   0.00000   0.00000   0.00002   0.00000   0.00000   0.00000   0.00000   0.00000  -0.00000   0.00000   0.00000   0.00000   0.00001   0.00000   0.00000   0.00000   0.00000   0.00000   0.00000   0.00000   0.00000   0.00000   0.00000   0.00000  -0.00000   0.00000   0.00000   0.00000   0.00000   0.00000   0.00000   0.00000   0.00000   0.00000   0.00000   0.00000   0.00000   0.00000  -0.00000   0.00000   0.00000   0.00000  -0.00000   0.00000  -0.00000   0.00000  -0.00000   0.00000   0.00000   0.00000   0.00000   0.00000   0.00000   0.00000   0.00000   0.00000   0.00000   0.00000  -0.00000   0.00000  -0.00000   0.00000   0.00000   0.00000  -0.00000   0.00000   0.00000   0.00000   0.00000   0.00000   0.00000   0.00000   0.00000   0.00000  -0.00000   0.00000   0.00000   0.00000  -0.00000   0.00000   0.00000   0.00000  -0.00000   0.00000   0.00000   0.00000  -0.00000   0.00000  -0.00000   0.00000  -0.00000   0.00000   0.00000
-29.52953   0.00000   0.00001   0.00000   0.00030   0.00000   0.00000   0.00000  -0.00000   0.00000  -0.00000   0.00000  -0.00000   0.00000   0.00005   0.00000  -0.00000   0.00000   0.00001   0.00000  -0.00000   0.00000  -0.00000   0.00000  -0.00000   0.00000  -0.00000   0.00000  -0.00000   0.00000  -0.00001   0.00000   0.00008   0.00000   0.00000   0.00000   0.00001   0.00000  -0.00000   0.00000   0.00002   0.00000  -0.00000   0.00000  -0.00000   0.00000  -0.00000   0.00000  -0.00000   0.00000   0.00000   0.00000   0.00002   0.00000   0.00000   0.00000   0.00002   0.00000  -0.00000   0.00000  -0.00000   0.00000  -0.00001   0.00000  -0.00000   0.00000  -0.00000   0.00000   0.00008   0.00000  -0.00000   0.00000   0.00001   0.00000   0.00000   0.00000   0.00002   0.00000   0.00000   0.00000   0.00000   0.00000  -0.00000   0.00000   0.00000   0.00000   0.00001   0.00000   0.00000   0.00000   0.00000   0.00000   0.00000   0.00000   0.00000   0.00000   0.00000   0.00000  -0.00000   0.00000   0.00000   0.00000   0.00000   0.00000   0.00000   0.00000   0.00000   0.00000   0.00000   0.00000   0.00000   0.00000  -0.00000   0.00000   0.00000   0.00000  -0.00000   0.00000  -0.00000   0.00000  -0.00000   0.00000   0.00000   0.00000   0.00000   0.00000   0.00000   0.00000   0.00000   0.00000   0.00000   0.00000  -0.00000   0.00000  -0.00000   0.00000   0.00000   0.00000  -0.00000   0.00000   0.00000   0.00000   0.00000   0.00000   0.00000   0.00000   0.00000   0.00000  -0.00000   0.00000   0.00000   0.00000  -0.00000   0.00000   0.00000   0.00000  -0.00000   0.00000   0.00000   0.00000  -0.00000   0.00000  -0.00000   0.00000  -0.00000   0.00000   0.00000
-29.47948   0.00000   0.00001   0.00000   0.00030   0.00000   0.00000   0.00000  -0.00000   0.00000  -0.00000   0.00000  -0.00000   0.00000   0.00005   0.00000  -0.00000   0.00000   0.00001   0.00000  -0.00000   0.00000  -0.00000   0.00000  -0.00000   0.00000  -0.00000   0.00000  -0.00000   0.00000  -0.00001   0.00000   0.00008   0.00000   0.00000   0.00000   0.00001   0.00000  -0.00000   0.00000   0.00002   0.00000  -0.00000   0.00000  -0.00000   0.00000  -0.00000   0.00000  -0.00000   0.00000   0.00000   0.00000   0.00002   0.00000   0.00000   0.00000   0.00002   0.00000  -0.00000   0.00000  -0.00000   0.00000  -0.00001   0.00000  -0.00000   0.00000  -0.00000   0.00000   0.00008   0.00000  -0.00000   0.00000   0.00001   0.00000   0.00000   0.00000   0.00002   0.00000   0.00000   0.00000   0.00000   0.00000  -0.00000   0.00000   0.00000   0.00000   0.00001   0.00000   0.00000   0.00000   0.00000   0.00000   0.00000   0.00000   0.00000   0.00000   0.00000   0.00000  -0.00000   0.00000   0.00000   0.00000   0.00000   0.00000   0.00000   0.00000   0.00000   0.00000   0.00000   0.00000   0.00000   0.00000  -0.00000   0.00000   0.00000   0.00000  -0.00000   0.00000  -0.00000   0.00000  -0.00000   0.00000   0.00000   0.00000   0.00000   0.00000   0.00000   0.00000   0.00000   0.00000   0.00000   0.00000  -0.00000   0.00000  -0.00000   0.00000   0.00000   0.00000  -0.00000   0.00000   0.00000   0.00000   0.00000   0.00000   0.00000   0.00000   0.00000   0.00000  -0.00000   0.00000   0.00000   0.00000  -0.00000   0.00000   0.00000   0.00000  -0.00000   0.00000   0.00000   0.00000  -0.00000   0.00000  -0.00000   0.00000  -0.00000   0.00000   0.00000
-29.42943   0.00000   0.00001   0.00000   0.00030   0.00000   0.00000   0.00000  -0.00000   0.00000  -0.00000   0.00000  -0.00000   0.00000   0.00005   0.00000  -0.00000   0.00000   0.00001   0.00000  -0.00000   0.00000  -0.00000   0.00000  -0.00000   0.00000  -0.00000   0.00000  -0.00000   0.00000  -0.00001   0.00000   0.00008   0.00000   0.00000   0.00000   0.00001   0.00000  -0.00000   0.00000   0.00002   0.00000  -0.00000   0.00000  -0.00000   0.00000  -0.00000   0.00000  -0.00000   0.00000   0.00000   0.00000   0.00002   0.00000   0.00000   0.00000   0.00002   0.00000  -0.00000   0.00000  -0.00000   0.00000  -0.00001   0.00000  -0.00000   0.00000  -0.00000   0.00000   0.00008   0.00000  -0.00000   0.00000   0.00001   0.00000   0.00000   0.00000   0.00002   0.00000   0.00000   0.00000   0.00000   0.00000  -0.00000   0.00000   0.00000   0.00000   0.00001   0.00000   0.00000   0.00000   0.00000   0.00000   0.00000   0.00000   0.00000   0.00000   0.00000   0.00000  -0.00000   0.00000   0.00000   0.00000   0.00000   0.00000   0.00000   0.00000   0.00000   0.00000   0.00000   0.00000   0.00000   0.00000  -0.00000   0.00000   0.00000   0.00000  -0.00000   0.00000  -0.00000   0.00000  -0.00000   0.00000   0.00000   0.00000   0.00000   0.00000   0.00000   0.00000   0.00000   0.00000   0.00000   0.00000  -0.00000   0.00000  -0.00000   0.00000   0.00000   0.00000  -0.00000   0.00000   0.00000   0.00000   0.00000   0.00000   0.00000   0.00000   0.00000   0.00000  -0.00000   0.00000   0.00000   0.00000  -0.00000   0.00000   0.00000   0.00000  -0.00000   0.00000   0.00000   0.00000  -0.00000   0.00000  -0.00000   0.00000  -0.00000   0.00000   0.00000
-29.37938   0.00000   0.00001   0.00000   0.00030   0.00000   0.00000   0.00000  -0.00000   0.00000  -0.00000   0.00000  -0.00000   0.00000   0.00005   0.00000  -0.00000   0.00000   0.00001   0.00000  -0.00000   0.00000  -0.00000   0.00000  -0.00000   0.00000  -0.00000   0.00000  -0.00000   0.00000  -0.00001   0.00000   0.00008   0.00000   0.00000   0.00000   0.00001   0.00000  -0.00000   0.00000   0.00002   0.00000  -0.00000   0.00000  -0.00000   0.00000  -0.00000   0.00000  -0.00000   0.00000   0.00000   0.00000   0.00002   0.00000   0.00000   0.00000   0.00002   0.00000  -0.00000   0.00000  -0.00000   0.00000  -0.00001   0.00000  -0.00000   0.00000  -0.00000   0.00000   0.00008   0.00000  -0.00000   0.00000   0.00001   0.00000   0.00000   0.00000   0.00002   0.00000   0.00000   0.00000   0.00000   0.00000  -0.00000   0.00000   0.00000   0.00000   0.00001   0.00000   0.00000   0.00000   0.00000   0.00000   0.00000   0.00000   0.00000   0.00000   0.00000   0.00000  -0.00000   0.00000   0.00000   0.00000   0.00000   0.00000   0.00000   0.00000   0.00000   0.00000   0.00000   0.00000   0.00000   0.00000  -0.00000   0.00000   0.00000   0.00000  -0.00000   0.00000  -0.00000   0.00000  -0.00000   0.00000   0.00000   0.00000   0.00000   0.00000   0.00000   0.00000   0.00000   0.00000   0.00000   0.00000  -0.00000   0.00000  -0.00000   0.00000   0.00000   0.00000  -0.00000   0.00000   0.00000   0.00000   0.00000   0.00000   0.00000   0.00000   0.00000   0.00000  -0.00000   0.00000   0.00000   0.00000  -0.00000   0.00000   0.00000   0.00000  -0.00000   0.00000   0.00000   0.00000  -0.00000   0.00000  -0.00000   0.00000  -0.00000   0.00000   0.00000
-29.32933   0.00000   0.00001   0.00000   0.00030   0.00000   0.00000   0.00000  -0.00000   0.00000  -0.00000   0.00000  -0.00000   0.00000   0.00005   0.00000  -0.00000   0.00000   0.00001   0.00000  -0.00000   0.00000  -0.00000   0.00000  -0.00000   0.00000  -0.00000   0.00000  -0.00000   0.00000  -0.00001   0.00000   0.00008   0.00000   0.00000   0.00000   0.00001   0.00000  -0.00000   0.00000   0.00002   0.00000  -0.00000   0.00000  -0.00000   0.00000  -0.00000   0.00000  -0.00000   0.00000   0.00000   0.00000   0.00002   0.00000   0.00000   0.00000   0.00002   0.00000  -0.00000   0.00000  -0.00000   0.00000  -0.00001   0.00000  -0.00000   0.00000  -0.00000   0.00000   0.00008   0.00000  -0.00000   0.00000   0.00001   0.00000   0.00000   0.00000   0.00002   0.00000   0.00000   0.00000   0.00000   0.00000  -0.00000   0.00000   0.00000   0.00000   0.00001   0.00000   0.00000   0.00000   0.00000   0.00000   0.00000   0.00000   0.00000   0.00000   0.00000   0.00000  -0.00000   0.00000   0.00000   0.00000   0.00000   0.00000   0.00000   0.00000   0.00000   0.00000   0.00000   0.00000   0.00000   0.00000  -0.00000   0.00000   0.00000   0.00000  -0.00000   0.00000  -0.00000   0.00000  -0.00000   0.00000   0.00000   0.00000   0.00000   0.00000   0.00000   0.00000   0.00000   0.00000   0.00000   0.00000  -0.00000   0.00000  -0.00000   0.00000   0.00000   0.00000  -0.00000   0.00000   0.00000   0.00000   0.00000   0.00000   0.00000   0.00000   0.00000   0.00000  -0.00000   0.00000   0.00000   0.00000  -0.00000   0.00000   0.00000   0.00000  -0.00000   0.00000   0.00000   0.00000  -0.00000   0.00000  -0.00000   0.00000  -0.00000   0.00000   0.00000