   2    2    1    1
  2.3108340e+02   4.2548328e-10   4.2548328e-10   1.2764498e-09   0.0000000e+00
            0.000000e+00
  CAR
 DOS and projected DOS file by LOBSTER. Energy is shifted such that the Fermi level lies at 0 eV. 
     19.36496876     -30.68508129  1001      -0.65505126       1.00000000
-30.03003   0.00000  10.00000
-29.97998   0.00000  10.00000
-29.92993   0.00000  10.00000
-29.87988   0.00000  10.00000
-29.82983   0.00000  10.00000
-29.77978   0.00000  10.00000
-29.72973   0.00000  10.00000
-29.67968   0.00000  10.00000
-29.62963   0.00000  10.00000
-29.57958   0.00000  10.00000
-29.52953   0.00000  10.00000
-29.47948   0.00000  10.00000
-29.42943   0.00000  10.00000
-29.37938   0.00000  10.00000
-29.32933   0.00000  10.00000
-29.27928   0.00000  10.00000
-29.22923   0.00000  10.00000
-29.17918   0.00000  10.00000
-29.12913   0.00000  10.00000
-29.07908   0.00000  10.00000
-29.02903   0.00000  10.00000
-28.97898   0.00000  10.00000
-28.92893   0.00000  10.00000
-28.87888   0.00000  10.00000
-28.82883   0.00000  10.00000
-28.77878   0.00000  10.00000
-28.72873   0.00000  10.00000
-28.67868   0.00000  10.00000
-28.62863   0.00000  10.00000
-28.57858   0.00000  10.00000
-28.52853   0.00000  10.00000
-28.47848   0.00000  10.00000
-28.42843   0.00000  10.00000
-28.37838   0.00000  10.00000
-28.32833   0.00000  10.00000
-28.27828   0.00000  10.00000
-28.22823   0.00000  10.00000
-28.17818   0.00000  10.00000
-28.12813   0.00000  10.00000
-28.07808   0.00000  10.00000
-28.02803   0.00000  10.00000
-27.97798   0.00000  10.00000
-27.92793   0.00000  10.00000
-27.87788   0.00000  10.00000
-27.82783   0.00000  10.00000
-27.77778   0.00000  10.00000
-27.72773   0.00000  10.00000
-27.67768   0.00000  10.00000
-27.62763   0.00000  10.00000
-27.57758   0.00000  10.00000
-27.52753   0.00000  10.00000
-27.47748   0.00000  10.00000
-27.42743   0.00000  10.00000
-27.37738   0.00000  10.00000
-27.32733   0.00000  10.00000
-27.27728   0.00000  10.00000
-27.22723   0.00000  10.00000
-27.17718   0.00000  10.00000
-27.12713   0.00000  10.00000
-27.07708   0.00000  10.00000
-27.02703   0.00000  10.00000
-26.97698   0.00000  10.00000
-26.92693   0.00000  10.00000
-26.87688   0.00000  10.00000
-26.82683   0.00000  10.00000
-26.77678   0.00000  10.00000
-26.72673   0.00000  10.00000
-26.67668   0.00000  10.00000
-26.62663   0.00000  10.00000
-26.57658   0.00000  10.00000
-26.52653   0.00000  10.00000
-26.47648   0.00000  10.00000
-26.42643   0.00000  10.00000
-26.37638   0.00000  10.00000
-26.32633   0.00000  10.00000
-26.27628   0.00000  10.00000
-26.22623   0.00000  10.00000
-26.17618   0.00000  10.00000
-26.12613   0.00000  10.00000
-26.07608   0.00000  10.00000
-26.02603   0.00000  10.00000
-25.97598   0.00000  10.00000
-25.92593   0.00000  10.00000
-25.87588   0.00000  10.00000
-25.82583   0.00000  10.00000
-25.77578   0.00000  10.00000
-25.72573   0.00000  10.00000
-25.67568   0.00000  10.00000
-25.62563   0.00000  10.00000
-25.57558   0.00000  10.00000
-25.52553   0.00000  10.00000
-25.47548   0.00000  10.00000
-25.42543   0.00000  10.00000
-25.37538   0.00000  10.00000
-25.32533   0.00000  10.00000
-25.27528   0.00000  10.00000
-25.22523   0.00000  10.00000
-25.17518   0.00000  10.00000
-25.12513   0.00000  10.00000
-25.07508   0.00000  10.00000
-25.02503   0.00000  10.00000
-24.97497   0.00000  10.00000
-24.92492   0.00000  10.00000
-24.87487   0.00000  10.00000
-24.82482   0.00000  10.00000
-24.77477   0.00000  10.00000
-24.72472   0.00000  10.00000
-24.67467   0.00000  10.00000
-24.62462   0.00000  10.00000
-24.57457   0.00000  10.00000
-24.52452   0.00000  10.00000
-24.47447   0.00000  10.00000
-24.42442   0.00000  10.00000
-24.37437   0.00000  10.00000
-24.32432   0.00000  10.00000
-24.27427   0.00000  10.00000
-24.22422   0.00000  10.00000
-24.17417   0.00000  10.00000
-24.12412   0.00000  10.00000
-24.07407   0.00000  10.00000
-24.02402   0.00000  10.00000
-23.97397   0.00000  10.00000
-23.92392   0.00000  10.00000
-23.87387   0.00000  10.00000
-23.82382   0.00000  10.00000
-23.77377   0.00000  10.00000
-23.72372   0.00000  10.00000
-23.67367   0.00000  10.00000
-23.62362   0.00000  10.00000
-23.57357   0.00000  10.00000
-23.52352   0.00000  10.00000
-23.47347   0.00000  10.00000
-23.42342   0.00000  10.00000
-23.37337   0.00000  10.00000
-23.32332   0.00000  10.00000
-23.27327   0.00000  10.00000
-23.22322   0.00000  10.00000
-23.17317   0.00000  10.00000
-23.12312   0.00000  10.00000
-23.07307   0.00000  10.00000
-23.02302   0.00000  10.00000
-22.97297   0.00000  10.00000
-22.92292   0.00000  10.00000
-22.87287   0.00000  10.00000
-22.82282   0.00000  10.00000
-22.77277   0.00000  10.00000
-22.72272   0.00000  10.00000
-22.67267   0.00000  10.00000
-22.62262   0.00000  10.00000
-22.57257   0.00000  10.00000
-22.52252   0.00000  10.00000
-22.47247   0.00001  10.00000
-22.42242   0.00004  10.00000
-22.37237   0.00020  10.00001
-22.32232   0.00099  10.00006
-22.27227   0.00435  10.00028
-22.22222   0.01703  10.00113
-22.17217   0.05925  10.00410
-22.12212   0.18323  10.01327
-22.07207   0.50398  10.03849
-22.02202   1.23373  10.10024
-21.97197   2.68974  10.23486
-21.92192   5.22647  10.49645
-21.87187   9.05810  10.94981
-21.82182  14.01258  11.65114
-21.77177  19.36219  12.62021
-21.72172  23.91223  13.81702
-21.67167  26.40836  15.13876
-21.62162  26.09057  16.44460
-21.57157  23.06412  17.59896
-21.52152  18.24351  18.51204
-21.47147  12.90980  19.15818
-21.42142   8.16975  19.56708
-21.37137   4.62105  19.79836
-21.32132   2.33464  19.91521
-21.27127   1.05271  19.96790
-21.22122   0.42329  19.98908
-21.17117   0.15165  19.99667
-21.12112   0.04836  19.99909
-21.07107   0.01372  19.99978
-21.02102   0.00346  19.99995
-20.97097   0.00077  19.99999
-20.92092   0.00015  20.00000
-20.87087   0.00003  20.00000
-20.82082   0.00000  20.00000
-20.77077   0.00000  20.00000
-20.72072   0.00000  20.00000
-20.67067   0.00000  20.00000
-20.62062   0.00000  20.00000
-20.57057   0.00000  20.00000
-20.52052   0.00000  20.00000
-20.47047   0.00000  20.00000
-20.42042   0.00000  20.00000
-20.37037   0.00000  20.00000
-20.32032   0.00000  20.00000
-20.27027   0.00000  20.00000
-20.22022   0.00000  20.00000
-20.17017   0.00000  20.00000
-20.12012   0.00000  20.00000
-20.07007   0.00000  20.00000
-20.02002   0.00000  20.00000
-19.96997   0.00000  20.00000
-19.91992   0.00000  20.00000
-19.86987   0.00000  20.00000
-19.81982   0.00000  20.00000
-19.76977   0.00000  20.00000
-19.71972   0.00000  20.00000
-19.66967   0.00000  20.00000
-19.61962   0.00000  20.00000
-19.56957   0.00000  20.00000
-19.51952   0.00000  20.00000
-19.46947   0.00000  20.00000
-19.41942   0.00000  20.00000
-19.36937   0.00000  20.00000
-19.31932   0.00000  20.00000
-19.26927   0.00000  20.00000
-19.21922   0.00000  20.00000
-19.16917   0.00000  20.00000
-19.11912   0.00000  20.00000
-19.06907   0.00000  20.00000
-19.01902   0.00000  20.00000
-18.96897   0.00000  20.00000
-18.91892   0.00000  20.00000
-18.86887   0.00000  20.00000
-18.81882   0.00000  20.00000
-18.76877   0.00000  20.00000
-18.71872   0.00000  20.00000
-18.66867   0.00000  20.00000
-18.61862   0.00000  20.00000
-18.56857   0.00000  20.00000
-18.51852   0.00000  20.00000
-18.46847   0.00000  20.00000
-18.41842   0.00000  20.00000
-18.36837   0.00000  20.00000
-18.31832   0.00000  20.00000
-18.26827   0.00000  20.00000
-18.21822   0.00000  20.00000
-18.16817   0.00000  20.00000
-18.11812   0.00000  20.00000
-18.06807   0.00000  20.00000
-18.01802   0.00000  20.00000
-17.96797   0.00000  20.00000
-17.91792   0.00000  20.00000
-17.86787   0.00000  20.00000
-17.81782   0.00000  20.00000
-17.76777   0.00000  20.00000
-17.71772   0.00000  20.00000
-17.66767   0.00000  20.00000
-17.61762   0.00000  20.00000
-17.56757   0.00000  20.00000
-17.51752   0.00000  20.00000
-17.46747   0.00000  20.00000
-17.41742   0.00000  20.00000
-17.36737   0.00000  20.00000
-17.31732   0.00000  20.00000
-17.26727   0.00000  20.00000
-17.21722   0.00000  20.00000
-17.16717   0.00000  20.00000
-17.11712   0.00000  20.00000
-17.06707   0.00000  20.00000
-17.01702   0.00000  20.00000
-16.96697   0.00000  20.00000
-16.91692   0.00000  20.00000
-16.86687   0.00000  20.00000
-16.81682   0.00000  20.00000
-16.76677   0.00000  20.00000
-16.71672   0.00000  20.00000
-16.66667   0.00000  20.00000
-16.61662   0.00000  20.00000
-16.56657   0.00000  20.00000
-16.51652   0.00000  20.00000
-16.46647   0.00000  20.00000
-16.41642   0.00000  20.00000
-16.36637   0.00000  20.00000
-16.31632   0.00000  20.00000
-16.26627   0.00000  20.00000
-16.21622   0.00000  20.00000
-16.16617   0.00000  20.00000
-16.11612   0.00000  20.00000
-16.06607   0.00000  20.00000
-16.01602   0.00000  20.00000
-15.96597   0.00000  20.00000
-15.91592   0.00000  20.00000
-15.86587   0.00000  20.00000
-15.81582   0.00000  20.00000
-15.76577   0.00000  20.00000
-15.71572   0.00000  20.00000
-15.66567   0.00000  20.00000
-15.61562   0.00000  20.00000
-15.56557   0.00000  20.00000
-15.51552   0.00000  20.00000
-15.46547   0.00000  20.00000
-15.41542   0.00000  20.00000
-15.36537   0.00000  20.00000
-15.31532   0.00000  20.00000
-15.26527   0.00000  20.00000
-15.21522   0.00000  20.00000
-15.16517   0.00000  20.00000
-15.11512   0.00000  20.00000
-15.06507   0.00000  20.00000
-15.01502   0.00000  20.00000
-14.96496   0.00000  20.00000
-14.91491   0.00000  20.00000
-14.86486   0.00000  20.00000
-14.81481   0.00000  20.00000
-14.76476   0.00000  20.00000
-14.71471   0.00000  20.00000
-14.66466   0.00000  20.00000
-14.61461   0.00000  20.00000
-14.56456   0.00000  20.00000
-14.51451   0.00000  20.00000
-14.46446   0.00000  20.00000
-14.41441   0.00000  20.00000
-14.36436   0.00000  20.00000
-14.31431   0.00000  20.00000
-14.26426   0.00000  20.00000
-14.21421   0.00000  20.00000
-14.16416   0.00000  20.00000
-14.11411   0.00000  20.00000
-14.06406   0.00000  20.00000
-14.01401   0.00000  20.00000
-13.96396   0.00000  20.00000
-13.91391   0.00000  20.00000
-13.86386   0.00000  20.00000
-13.81381   0.00000  20.00000
-13.76376   0.00000  20.00000
-13.71371   0.00000  20.00000
-13.66366   0.00000  20.00000
-13.61361   0.00000  20.00000
-13.56356   0.00000  20.00000
-13.51351   0.00000  20.00000
-13.46346   0.00000  20.00000
-13.41341   0.00000  20.00000
-13.36336   0.00000  20.00000
-13.31331   0.00000  20.00000
-13.26326   0.00000  20.00000
-13.21321   0.00000  20.00000
-13.16316   0.00000  20.00000
-13.11311   0.00000  20.00000
-13.06306   0.00000  20.00000
-13.01301   0.00000  20.00000
-12.96296   0.00000  20.00000
-12.91291   0.00000  20.00000
-12.86286   0.00000  20.00000
-12.81281   0.00000  20.00000
-12.76276   0.00000  20.00000
-12.71271   0.00000  20.00000
-12.66266   0.00000  20.00000
-12.61261   0.00000  20.00000
-12.56256   0.00002  20.00000
-12.51251   0.00007  20.00001
-12.46246   0.00029  20.00002
-12.41241   0.00100  20.00007
-12.36236   0.00311  20.00023
-12.31231   0.00862  20.00066
-12.26226   0.02138  20.00173
-12.21221   0.04749  20.00410
-12.16216   0.09480  20.00885
-12.11211   0.17070  20.01739
-12.06206   0.27859  20.03134
-12.01201   0.41458  20.05209
-11.96196   0.56686  20.08046
-11.91191   0.71881  20.11643
-11.86186   0.85477  20.15922
-11.81181   0.96521  20.20753
-11.76176   1.04874  20.26001
-11.71171   1.11043  20.31559
-11.66166   1.15840  20.37357
-11.61161   1.20075  20.43367
-11.56156   1.24419  20.49594
-11.51151   1.29400  20.56070
-11.46146   1.35465  20.62850
-11.41141   1.42981  20.70007
-11.36136   1.52124  20.77620
-11.31131   1.62647  20.85761
-11.26126   1.73628  20.94451
-11.21121   1.83415  21.03631
-11.16116   1.89958  21.13138
-11.11111   1.91497  21.22723
-11.06106   1.87298  21.32097
-11.01101   1.77995  21.41006
-10.96096   1.65309  21.49279
-10.91091   1.51317  21.56853
-10.86086   1.37688  21.63744
-10.81081   1.25243  21.70013
-10.76076   1.13929  21.75715
-10.71071   1.03078  21.80874
-10.66066   0.91794  21.85468
-10.61061   0.79383  21.89441
-10.56056   0.65703  21.92730
-10.51051   0.51324  21.95298
-10.46046   0.37370  21.97169
-10.41041   0.25099  21.98425
-10.36036   0.15417  21.99197
-10.31031   0.08603  21.99627
-10.26026   0.04338  21.99844
-10.21021   0.01968  21.99943
-10.16016   0.00801  21.99983
-10.11011   0.00292  21.99997
-10.06006   0.00095  22.00002
-10.01001   0.00027  22.00003
 -9.95996   0.00007  22.00004
 -9.90991   0.00002  22.00004
 -9.85986   0.00000  22.00004
 -9.80981   0.00000  22.00004
 -9.75976   0.00000  22.00004
 -9.70971   0.00000  22.00004
 -9.65966   0.00000  22.00004
 -9.60961   0.00000  22.00004
 -9.55956   0.00000  22.00004
 -9.50951   0.00000  22.00004
 -9.45946   0.00000  22.00004
 -9.40941   0.00000  22.00004
 -9.35936   0.00000  22.00004
 -9.30931   0.00000  22.00004
 -9.25926   0.00000  22.00004
 -9.20921   0.00000  22.00004
 -9.15916   0.00000  22.00004
 -9.10911   0.00000  22.00004
 -9.05906   0.00000  22.00004
 -9.00901   0.00000  22.00004
 -8.95896   0.00000  22.00004
 -8.90891   0.00000  22.00004
 -8.85886   0.00000  22.00004
 -8.80881   0.00000  22.00004
 -8.75876   0.00000  22.00004
 -8.70871   0.00000  22.00004
 -8.65866   0.00001  22.00004
 -8.60861   0.00005  22.00004
 -8.55856   0.00019  22.00005
 -8.50851   0.00069  22.00009
 -8.45846   0.00218  22.00020
 -8.40841   0.00615  22.00050
 -8.35836   0.01551  22.00128
 -8.30831   0.03502  22.00303
 -8.25826   0.07103  22.00659
 -8.20821   0.12986  22.01309
 -8.15816   0.21504  22.02385
 -8.10811   0.32437  22.04009
 -8.05806   0.44899  22.06256
 -8.00801   0.57547  22.09136
 -7.95796   0.69037  22.12591
 -7.90791   0.78471  22.16519
 -7.85786   0.85613  22.20804
 -7.80781   0.90792  22.25348
 -7.75776   0.94623  22.30084
 -7.70771   0.97740  22.34976
 -7.65766   1.00654  22.40013
 -7.60761   1.03733  22.45205
 -7.55756   1.07259  22.50574
 -7.50751   1.11486  22.56153
 -7.45746   1.16654  22.61992
 -7.40741   1.22914  22.68144
 -7.35736   1.30167  22.74659
 -7.30731   1.37866  22.81559
 -7.25726   1.44921  22.88812
 -7.20721   1.49851  22.96312
 -7.15716   1.51232  23.03881
 -7.10711   1.48277  23.11303
 -7.05706   1.41197  23.18370
 -7.00701   1.31108  23.24932
 -6.95696   1.19548  23.30915
 -6.90691   1.07897  23.36315
 -6.85686   0.97014  23.41171
 -6.80681   0.87185  23.45534
 -6.75676   0.78323  23.49454
 -6.70671   0.70259  23.52971
 -6.65666   0.62945  23.56121
 -6.60661   0.56464  23.58947
 -6.55656   0.50935  23.61497
 -6.50651   0.46405  23.63819
 -6.45646   0.42821  23.65962
 -6.40641   0.40038  23.67966
 -6.35636   0.37852  23.69861
 -6.30631   0.36049  23.71665
 -6.25626   0.34474  23.73390
 -6.20621   0.33046  23.75044
 -6.15616   0.31731  23.76633
 -6.10611   0.30497  23.78159
 -6.05606   0.29313  23.79626
 -6.00601   0.28173  23.81036
 -5.95596   0.27084  23.82392
 -5.90591   0.26049  23.83695
 -5.85586   0.25054  23.84949
 -5.80581   0.24087  23.86155
 -5.75576   0.23150  23.87314
 -5.70571   0.22251  23.88427
 -5.65566   0.21386  23.89498
 -5.60561   0.20545  23.90526
 -5.55556   0.19725  23.91513
 -5.50551   0.18928  23.92461
 -5.45546   0.18153  23.93369
 -5.40541   0.17390  23.94239
 -5.35536   0.16622  23.95071
 -5.30531   0.15824  23.95863
 -5.25526   0.14957  23.96612
 -5.20521   0.13978  23.97312
 -5.15516   0.12877  23.97956
 -5.10511   0.11750  23.98544
 -5.05506   0.10875  23.99088
 -5.00501   0.10748  23.99626
 -4.95495   0.12006  24.00227
 -4.90490   0.15217  24.00989
 -4.85485   0.20598  24.02020
 -4.80480   0.27812  24.03412
 -4.75475   0.36006  24.05214
 -4.70470   0.44082  24.07420
 -4.65465   0.51093  24.09977
 -4.60460   0.56520  24.12806
 -4.55455   0.60334  24.15826
 -4.50450   0.62843  24.18971
 -4.45445   0.64472  24.22198
 -4.40440   0.65595  24.25481
 -4.35435   0.66468  24.28808
 -4.30430   0.67233  24.32173
 -4.25425   0.67963  24.35574
 -4.20420   0.68687  24.39012
 -4.15415   0.69413  24.42486
 -4.10410   0.70141  24.45997
 -4.05405   0.70875  24.49544
 -4.00400   0.71624  24.53129
 -3.95395   0.72391  24.56752
 -3.90390   0.73170  24.60414
 -3.85385   0.73957  24.64116
 -3.80380   0.74758  24.67858
 -3.75375   0.75582  24.71640
 -3.70370   0.76439  24.75466
 -3.65365   0.77331  24.79337
 -3.60360   0.78251  24.83253
 -3.55355   0.79190  24.87217
 -3.50350   0.80155  24.91228
 -3.45345   0.81184  24.95292
 -3.40340   0.82320  24.99412
 -3.35335   0.83594  25.03596
 -3.30330   0.85055  25.07853
 -3.25325   0.86879  25.12201
 -3.20320   0.89479  25.16679
 -3.15315   0.93488  25.21358
 -3.10310   0.99606  25.26344
 -3.05305   1.08364  25.31767
 -3.00300   1.19916  25.37769
 -2.95295   1.33889  25.44470
 -2.90290   1.49336  25.51944
 -2.85285   1.64840  25.60195
 -2.80280   1.78814  25.69144
 -2.75275   1.89911  25.78649
 -2.70270   1.97382  25.88528
 -2.65265   2.01218  25.98599
 -2.60260   2.02007  26.08710
 -2.55255   2.00653  26.18753
 -2.50250   1.98079  26.28666
 -2.45245   1.95072  26.38430
 -2.40240   1.92223  26.48051
 -2.35235   1.89931  26.57557
 -2.30230   1.88413  26.66987
 -2.25225   1.87720  26.76382
 -2.20220   1.87795  26.85781
 -2.15215   1.88556  26.95218
 -2.10210   1.89965  27.04726
 -2.05205   1.92091  27.14340
 -2.00200   1.95132  27.24107
 -1.95195   1.99384  27.34086
 -1.90190   2.05099  27.44351
 -1.85185   2.12232  27.54973
 -1.80180   2.20189  27.65994
 -1.75175   2.27758  27.77393
 -1.70170   2.33372  27.89073
 -1.65165   2.35643  28.00867
 -1.60160   2.33900  28.12574
 -1.55155   2.28409  28.24006
 -1.50150   2.20109  28.35022
 -1.45145   2.10042  28.45535
 -1.40140   1.98833  28.55487
 -1.35135   1.86521  28.64822
 -1.30130   1.72747  28.73468
 -1.25125   1.57159  28.81334
 -1.20120   1.39844  28.88333
 -1.15115   1.21600  28.94419
 -1.10110   1.03869  28.99618
 -1.05105   0.88298  29.04037
 -1.00100   0.76126  29.07847
 -0.95095   0.67775  29.11239
 -0.90090   0.62867  29.14386
 -0.85085   0.60589  29.17418
 -0.80080   0.60091  29.20426
 -0.75075   0.60667  29.23462
 -0.70070   0.61771  29.26554
 -0.65065   0.63015  29.29708
 -0.60060   0.64258  29.32924
 -0.55055   0.65670  29.36211
 -0.50050   0.67684  29.39598
 -0.45045   0.70856  29.43145
 -0.40040   0.75769  29.46937
 -0.35035   0.83018  29.51092
 -0.30030   0.93168  29.55755
 -0.25025   1.06503  29.61085
 -0.20020   1.22576  29.67220
 -0.15015   1.39834  29.74219
 -0.10010   1.55715  29.82013
 -0.05005   1.67369  29.90389
 -0.00000   1.72794  29.99038
  0.05005   1.71773  30.07635
  0.10010   1.66092  30.15948
  0.15015   1.58850  30.23898
  0.20020   1.53273  30.31570
  0.25025   1.51624  30.39158
  0.30030   1.54663  30.46899
  0.35035   1.61656  30.54990
  0.40040   1.70701  30.63534
  0.45045   1.79159  30.72501
  0.50050   1.84220  30.81721
  0.55055   1.83614  30.90911
  0.60060   1.76356  30.99737
  0.65065   1.63172  31.07904
  0.70070   1.46324  31.15228
  0.75075   1.28881  31.21678
  0.80080   1.13783  31.27373
  0.85085   1.03100  31.32533
  0.90090   0.97713  31.37424
  0.95095   0.97372  31.42297
  1.00100   1.01005  31.47353
  1.05105   1.07144  31.52715
  1.10110   1.14372  31.58439
  1.15115   1.21639  31.64527
  1.20120   1.28338  31.70951
  1.25125   1.34159  31.77665
  1.30130   1.38852  31.84615
  1.35135   1.42090  31.91727
  1.40140   1.43514  31.98909
  1.45145   1.42902  32.06062
  1.50150   1.40351  32.13086
  1.55155   1.36332  32.19910
  1.60160   1.31577  32.26495
  1.65165   1.26826  32.32843
  1.70170   1.22545  32.38976
  1.75175   1.18805  32.44922
  1.80180   1.15428  32.50700
  1.85185   1.12257  32.56318
  1.90190   1.09309  32.61789
  1.95195   1.06666  32.67128
  2.00200   1.04223  32.72344
  2.05205   1.01590  32.77429
  2.10210   0.98262  32.82347
  2.15215   0.93942  32.87048
  2.20220   0.88744  32.91490
  2.25225   0.83145  32.95651
  2.30230   0.77752  32.99543
  2.35235   0.73086  33.03201
  2.40240   0.69477  33.06678
  2.45245   0.67066  33.10035
  2.50250   0.65799  33.13328
  2.55255   0.65410  33.16602
  2.60260   0.65495  33.19880
  2.65265   0.65760  33.23171
  2.70270   0.66370  33.26493
  2.75275   0.68111  33.29902
  2.80280   0.72127  33.33512
  2.85285   0.79253  33.37479
  2.90290   0.89340  33.41950
  2.95295   1.01076  33.47009
  3.00300   1.12511  33.52640
  3.05305   1.21982  33.58745
  3.10310   1.28776  33.65191
  3.15315   1.33131  33.71854
  3.20320   1.35695  33.78645
  3.25325   1.36942  33.85499
  3.30330   1.36995  33.92356
  3.35335   1.35839  33.99155
  3.40340   1.33611  34.05842
  3.45345   1.30702  34.12384
  3.50350   1.27630  34.18772
  3.55355   1.24885  34.25022
  3.60360   1.22860  34.31171
  3.65365   1.21816  34.37268
  3.70370   1.21773  34.43363
  3.75375   1.22337  34.49486
  3.80380   1.22670  34.55625
  3.85385   1.21759  34.61719
  3.90390   1.18867  34.67669
  3.95395   1.13931  34.73371
  4.00400   1.07652  34.78759
  4.05405   1.01285  34.83828
  4.10410   0.96245  34.88645
  4.15415   0.93728  34.93336
  4.20420   0.94413  34.98062
  4.25425   0.98278  35.02981
  4.30430   1.04597  35.08216
  4.35435   1.12126  35.13828
  4.40440   1.19495  35.19808
  4.45445   1.25607  35.26095
  4.50450   1.29837  35.32593
  4.55455   1.31954  35.39198
  4.60460   1.31907  35.45800
  4.65465   1.29707  35.52291
  4.70470   1.25467  35.58571
  4.75475   1.19508  35.64552
  4.80480   1.12337  35.70175
  4.85485   1.04475  35.75404
  4.90490   0.96226  35.80220
  4.95495   0.87563  35.84603
  5.00501   0.78214  35.88517
  5.05506   0.67913  35.91916
  5.10511   0.56661  35.94752
  5.15516   0.44876  35.96998
  5.20521   0.33349  35.98667
  5.25526   0.23006  35.99819
  5.30531   0.14594  36.00549
  5.35536   0.08446  36.00972
  5.40541   0.04430  36.01194
  5.45546   0.02094  36.01298
  5.50551   0.00889  36.01343
  5.55556   0.00338  36.01360
  5.60561   0.00115  36.01366
  5.65566   0.00035  36.01367
  5.70571   0.00009  36.01368
  5.75576   0.00002  36.01368
  5.80581   0.00000  36.01368
  5.85586   0.00000  36.01368
  5.90591   0.00000  36.01368
  5.95596   0.00000  36.01368
  6.00601   0.00000  36.01368
  6.05606   0.00000  36.01368
  6.10611   0.00000  36.01368
  6.15616   0.00000  36.01368
  6.20621   0.00000  36.01368
  6.25626  -0.00000  36.01368
  6.30631  -0.00000  36.01368
  6.35636  -0.00000  36.01368
  6.40641   0.00000  36.01368
  6.45646   0.00000  36.01368
  6.50651   0.00000  36.01368
  6.55656   0.00000  36.01368
  6.60661   0.00000  36.01368
  6.65666   0.00000  36.01368
  6.70671   0.00000  36.01368
  6.75676   0.00000  36.01368
  6.80681   0.00000  36.01368
  6.85686   0.00000  36.01368
  6.90691   0.00000  36.01368
  6.95696   0.00000  36.01368
  7.00701   0.00000  36.01368
  7.05706   0.00000  36.01368
  7.10711   0.00000  36.01368
  7.15716   0.00000  36.01368
  7.20721   0.00000  36.01368
  7.25726   0.00000  36.01368
  7.30731   0.00000  36.01368
  7.35736   0.00000  36.01368
  7.40741   0.00000  36.01368
  7.45746   0.00000  36.01368
  7.50751   0.00000  36.01368
  7.55756   0.00000  36.01368
  7.60761   0.00000  36.01368
  7.65766   0.00000  36.01368
  7.70771   0.00000  36.01368
  7.75776   0.00000  36.01368
  7.80781   0.00000  36.01368
  7.85786   0.00000  36.01368
  7.90791   0.00000  36.01368
  7.95796   0.00000  36.01368
  8.00801   0.00000  36.01368
  8.05806   0.00000  36.01368
  8.10811   0.00000  36.01368
  8.15816   0.00000  36.01368
  8.20821   0.00000  36.01368
  8.25826   0.00000  36.01368
  8.30831   0.00000  36.01368
  8.35836   0.00000  36.01368
  8.40841   0.00000  36.01368
  8.45846   0.00000  36.01368
  8.50851   0.00000  36.01368
  8.55856   0.00000  36.01368
  8.60861   0.00000  36.01368
  8.65866   0.00000  36.01368
  8.70871   0.00000  36.01368
  8.75876   0.00000  36.01368
  8.80881   0.00000  36.01368
  8.85886   0.00000  36.01368
  8.90891   0.00000  36.01368
  8.95896   0.00000  36.01368
  9.00901   0.00000  36.01368
  9.05906   0.00000  36.01368
  9.10911   0.00000  36.01368
  9.15916   0.00000  36.01368
  9.20921   0.00000  36.01368
  9.25926   0.00000  36.01368
  9.30931   0.00000  36.01368
  9.35936   0.00000  36.01368
  9.40941   0.00000  36.01368
  9.45946   0.00000  36.01368
  9.50951   0.00000  36.01368
  9.55956   0.00000  36.01368
  9.60961   0.00000  36.01368
  9.65966   0.00000  36.01368
  9.70971   0.00000  36.01368
  9.75976   0.00000  36.01368
  9.80981   0.00000  36.01368
  9.85986   0.00000  36.01368
  9.90991   0.00000  36.01368
  9.95996   0.00000  36.01368
 10.01001   0.00000  36.01368
 10.06006   0.00000  36.01368
 10.11011   0.00000  36.01368
 10.16016   0.00000  36.01368
 10.21021   0.00000  36.01368
 10.26026   0.00000  36.01368
 10.31031   0.00000  36.01368
 10.36036   0.00000  36.01368
 10.41041   0.00000  36.01368
 10.46046   0.00000  36.01368
 10.51051   0.00000  36.01368
 10.56056   0.00000  36.01368
 10.61061   0.00000  36.01368
 10.66066   0.00000  36.01368
 10.71071   0.00000  36.01368
 10.76076   0.00000  36.01368
 10.81081   0.00000  36.01368
 10.86086   0.00000  36.01368
 10.91091   0.00000  36.01368
 10.96096   0.00000  36.01368
 11.01101   0.00000  36.01368
 11.06106   0.00000  36.01368
 11.11111   0.00000  36.01368
 11.16116   0.00000  36.01368
 11.21121   0.00000  36.01368
 11.26126   0.00000  36.01368
 11.31131   0.00000  36.01368
 11.36136   0.00000  36.01368
 11.41141   0.00000  36.01368
 11.46146   0.00000  36.01368
 11.51151   0.00000  36.01368
 11.56156   0.00000  36.01368
 11.61161   0.00000  36.01368
 11.66166   0.00000  36.01368
 11.71171   0.00000  36.01368
 11.76176   0.00000  36.01368
 11.81181   0.00000  36.01368
 11.86186   0.00000  36.01368
 11.91191   0.00000  36.01368
 11.96196   0.00000  36.01368
 12.01201   0.00000  36.01368
 12.06206   0.00000  36.01368
 12.11211   0.00000  36.01368
 12.16216   0.00000  36.01368
 12.21221   0.00000  36.01368
 12.26226   0.00000  36.01368
 12.31231   0.00000  36.01368
 12.36236   0.00000  36.01368
 12.41241   0.00000  36.01368
 12.46246   0.00000  36.01368
 12.51251   0.00000  36.01368
 12.56256   0.00000  36.01368
 12.61261   0.00000  36.01368
 12.66266   0.00000  36.01368
 12.71271   0.00000  36.01368
 12.76276   0.00000  36.01368
 12.81281   0.00000  36.01368
 12.86286   0.00000  36.01368
 12.91291   0.00000  36.01368
 12.96296   0.00000  36.01368
 13.01301   0.00000  36.01368
 13.06306   0.00000  36.01368
 13.11311   0.00000  36.01368
 13.16316   0.00000  36.01368
 13.21321   0.00000  36.01368
 13.26326   0.00000  36.01368
 13.31331   0.00000  36.01368
 13.36336   0.00000  36.01368
 13.41341   0.00000  36.01368
 13.46346   0.00000  36.01368
 13.51351   0.00000  36.01368
 13.56356   0.00000  36.01368
 13.61361   0.00000  36.01368
 13.66366   0.00000  36.01368
 13.71371   0.00000  36.01368
 13.76376   0.00000  36.01368
 13.81381   0.00000  36.01368
 13.86386   0.00000  36.01368
 13.91391   0.00000  36.01368
 13.96396   0.00000  36.01368
 14.01401   0.00000  36.01368
 14.06406   0.00000  36.01368
 14.11411   0.00000  36.01368
 14.16416   0.00000  36.01368
 14.21421   0.00000  36.01368
 14.26426   0.00000  36.01368
 14.31431   0.00000  36.01368
 14.36436   0.00000  36.01368
 14.41441   0.00000  36.01368
 14.46446   0.00000  36.01368
 14.51451   0.00000  36.01368
 14.56456   0.00000  36.01368
 14.61461   0.00000  36.01368
 14.66466   0.00000  36.01368
 14.71471   0.00000  36.01368
 14.76476   0.00000  36.01368
 14.81481   0.00000  36.01368
 14.86486   0.00000  36.01368
 14.91491   0.00000  36.01368
 14.96496   0.00000  36.01368
 15.01502   0.00000  36.01368
 15.06507   0.00000  36.01368
 15.11512   0.00000  36.01368
 15.16517   0.00000  36.01368
 15.21522   0.00000  36.01368
 15.26527   0.00000  36.01368
 15.31532   0.00000  36.01368
 15.36537   0.00000  36.01368
 15.41542   0.00000  36.01368
 15.46547   0.00000  36.01368
 15.51552   0.00000  36.01368
 15.56557   0.00000  36.01368
 15.61562   0.00000  36.01368
 15.66567   0.00000  36.01368
 15.71572   0.00000  36.01368
 15.76577   0.00000  36.01368
 15.81582   0.00000  36.01368
 15.86587   0.00000  36.01368
 15.91592   0.00000  36.01368
 15.96597   0.00000  36.01368
 16.01602   0.00000  36.01368
 16.06607   0.00000  36.01368
 16.11612   0.00000  36.01368
 16.16617   0.00000  36.01368
 16.21622   0.00000  36.01368
 16.26627   0.00000  36.01368
 16.31632   0.00000  36.01368
 16.36637   0.00000  36.01368
 16.41642   0.00000  36.01368
 16.46647   0.00000  36.01368
 16.51652   0.00000  36.01368
 16.56657   0.00000  36.01368
 16.61662   0.00000  36.01368
 16.66667   0.00000  36.01368
 16.71672   0.00000  36.01368
 16.76677   0.00000  36.01368
 16.81682   0.00000  36.01368
 16.86687   0.00000  36.01368
 16.91692   0.00000  36.01368
 16.96697   0.00000  36.01368
 17.01702   0.00000  36.01368
 17.06707   0.00000  36.01368
 17.11712   0.00000  36.01368
 17.16717   0.00000  36.01368
 17.21722   0.00000  36.01368
 17.26727   0.00000  36.01368
 17.31732   0.00000  36.01368
 17.36737   0.00000  36.01368
 17.41742   0.00000  36.01368
 17.46747   0.00000  36.01368
 17.51752   0.00000  36.01368
 17.56757   0.00000  36.01368
 17.61762   0.00000  36.01368
 17.66767   0.00000  36.01368
 17.71772   0.00000  36.01368
 17.76777   0.00000  36.01368
 17.81782   0.00000  36.01368
 17.86787   0.00000  36.01368
 17.91792   0.00000  36.01368
 17.96797   0.00000  36.01368
 18.01802   0.00000  36.01368
 18.06807   0.00000  36.01368
 18.11812   0.00000  36.01368
 18.16817   0.00000  36.01368
 18.21822   0.00000  36.01368
 18.26827   0.00000  36.01368
 18.31832   0.00000  36.01368
 18.36837   0.00000  36.01368
 18.41842   0.00000  36.01368
 18.46847   0.00000  36.01368
 18.51852   0.00000  36.01368
 18.56857   0.00000  36.01368
 18.61862   0.00000  36.01368
 18.66867   0.00000  36.01368
 18.71872   0.00000  36.01368
 18.76877   0.00000  36.01368
 18.81882   0.00000  36.01368
 18.86887   0.00000  36.01368
 18.91892   0.00000  36.01368
 18.96897   0.00000  36.01368
 19.01902   0.00000  36.01368
 19.06907   0.00000  36.01368
 19.11912   0.00000  36.01368
 19.16917   0.00000  36.01368
 19.21922   0.00000  36.01368
 19.26927   0.00000  36.01368
 19.31932   0.00000  36.01368
 19.36937   0.00000  36.01368
 19.41942   0.00000  36.01368