  COHP#       atomMU       atomNU     distance     translation      ICOHP (at) eF   for spin  1
      1          Sn1          Te2      3.00862       0   0   0           -2.14524 
      1       Sn1_5s       Te2_5s      3.00862       0   0   0            0.00959 
      1       Sn1_5s     Te2_5p_y      3.00862       0   0   0           -0.11457 
      1       Sn1_5s     Te2_5p_z      3.00862       0   0   0            0.00000 
      1       Sn1_5s     Te2_5p_x      3.00862       0   0   0           -0.11574 
      1       Sn1_5s    Te2_4d_xy      3.00862       0   0   0            0.00049 
      1       Sn1_5s    Te2_4d_yz      3.00862       0   0   0           -0.00000 
      1       Sn1_5s   Te2_4d_z^2      3.00862       0   0   0            0.00004 
      1       Sn1_5s    Te2_4d_xz      3.00862       0   0   0           -0.00000 
      1       Sn1_5s Te2_4d_x^2-y^2      3.00862       0   0   0           -0.00000 
      1     Sn1_5p_y       Te2_5s      3.00862       0   0   0           -0.25452 
      1     Sn1_5p_y     Te2_5p_y      3.00862       0   0   0           -0.17146 
      1     Sn1_5p_y     Te2_5p_z      3.00862       0   0   0           -0.00001 
      1     Sn1_5p_y     Te2_5p_x      3.00862       0   0   0           -0.41913 
      1     Sn1_5p_y    Te2_4d_xy      3.00862       0   0   0           -0.00469 
      1     Sn1_5p_y    Te2_4d_yz      3.00862       0   0   0           -0.00000 
      1     Sn1_5p_y   Te2_4d_z^2      3.00862       0   0   0           -0.00099 
      1     Sn1_5p_y    Te2_4d_xz      3.00862       0   0   0           -0.00004 
      1     Sn1_5p_y Te2_4d_x^2-y^2      3.00862       0   0   0           -0.00092 
      1     Sn1_5p_z       Te2_5s      3.00862       0   0   0           -0.00000 
      1     Sn1_5p_z     Te2_5p_y      3.00862       0   0   0            0.00000 
      1     Sn1_5p_z     Te2_5p_z      3.00862       0   0   0           -0.21557 
      1     Sn1_5p_z     Te2_5p_x      3.00862       0   0   0            0.00000 
      1     Sn1_5p_z    Te2_4d_xy      3.00862       0   0   0            0.00000 
      1     Sn1_5p_z    Te2_4d_yz      3.00862       0   0   0           -0.00125 
      1     Sn1_5p_z   Te2_4d_z^2      3.00862       0   0   0           -0.00000 
      1     Sn1_5p_z    Te2_4d_xz      3.00862       0   0   0           -0.00125 
      1     Sn1_5p_z Te2_4d_x^2-y^2      3.00862       0   0   0            0.00000 
      1     Sn1_5p_x       Te2_5s      3.00862       0   0   0           -0.25406 
      1     Sn1_5p_x     Te2_5p_y      3.00862       0   0   0           -0.41621 
      1     Sn1_5p_x     Te2_5p_z      3.00862       0   0   0           -0.00001 
      1     Sn1_5p_x     Te2_5p_x      3.00862       0   0   0           -0.16859 
      1     Sn1_5p_x    Te2_4d_xy      3.00862       0   0   0           -0.00469 
      1     Sn1_5p_x    Te2_4d_yz      3.00862       0   0   0           -0.00004 
      1     Sn1_5p_x   Te2_4d_z^2      3.00862       0   0   0           -0.00099 
      1     Sn1_5p_x    Te2_4d_xz      3.00862       0   0   0           -0.00000 
      1     Sn1_5p_x Te2_4d_x^2-y^2      3.00862       0   0   0           -0.00092 
      1    Sn1_4d_xy       Te2_5s      3.00862       0   0   0            0.00082 
      1    Sn1_4d_xy     Te2_5p_y      3.00862       0   0   0           -0.00312 
      1    Sn1_4d_xy     Te2_5p_z      3.00862       0   0   0           -0.00000 
      1    Sn1_4d_xy     Te2_5p_x      3.00862       0   0   0           -0.00313 
      1    Sn1_4d_xy    Te2_4d_xy      3.00862       0   0   0            0.00001 
      1    Sn1_4d_xy    Te2_4d_yz      3.00862       0   0   0           -0.00000 
      1    Sn1_4d_xy   Te2_4d_z^2      3.00862       0   0   0            0.00000 
      1    Sn1_4d_xy    Te2_4d_xz      3.00862       0   0   0           -0.00000 
      1    Sn1_4d_xy Te2_4d_x^2-y^2      3.00862       0   0   0           -0.00000 
      1    Sn1_4d_yz       Te2_5s      3.00862       0   0   0           -0.00000 
      1    Sn1_4d_yz     Te2_5p_y      3.00862       0   0   0           -0.00000 
      1    Sn1_4d_yz     Te2_5p_z      3.00862       0   0   0           -0.00032 
      1    Sn1_4d_yz     Te2_5p_x      3.00862       0   0   0           -0.00010 
      1    Sn1_4d_yz    Te2_4d_xy      3.00862       0   0   0           -0.00000 
      1    Sn1_4d_yz    Te2_4d_yz      3.00862       0   0   0            0.00000 
      1    Sn1_4d_yz   Te2_4d_z^2      3.00862       0   0   0           -0.00000 
      1    Sn1_4d_yz    Te2_4d_xz      3.00862       0   0   0            0.00000 
      1    Sn1_4d_yz Te2_4d_x^2-y^2      3.00862       0   0   0           -0.00000 
      1   Sn1_4d_z^2       Te2_5s      3.00862       0   0   0            0.00003 
      1   Sn1_4d_z^2     Te2_5p_y      3.00862       0   0   0           -0.00135 
      1   Sn1_4d_z^2     Te2_5p_z      3.00862       0   0   0            0.00000 
      1   Sn1_4d_z^2     Te2_5p_x      3.00862       0   0   0           -0.00138 
      1   Sn1_4d_z^2    Te2_4d_xy      3.00862       0   0   0            0.00000 
      1   Sn1_4d_z^2    Te2_4d_yz      3.00862       0   0   0           -0.00000 
      1   Sn1_4d_z^2   Te2_4d_z^2      3.00862       0   0   0            0.00000 
      1   Sn1_4d_z^2    Te2_4d_xz      3.00862       0   0   0           -0.00000 
      1   Sn1_4d_z^2 Te2_4d_x^2-y^2      3.00862       0   0   0           -0.00000 
      1    Sn1_4d_xz       Te2_5s      3.00862       0   0   0           -0.00000 
      1    Sn1_4d_xz     Te2_5p_y      3.00862       0   0   0           -0.00010 
      1    Sn1_4d_xz     Te2_5p_z      3.00862       0   0   0           -0.00032 
      1    Sn1_4d_xz     Te2_5p_x      3.00862       0   0   0           -0.00000 
      1    Sn1_4d_xz    Te2_4d_xy      3.00862       0   0   0           -0.00000 
      1    Sn1_4d_xz    Te2_4d_yz      3.00862       0   0   0            0.00000 
      1    Sn1_4d_xz   Te2_4d_z^2      3.00862       0   0   0           -0.00000 
      1    Sn1_4d_xz    Te2_4d_xz      3.00862       0   0   0            0.00000 
      1    Sn1_4d_xz Te2_4d_x^2-y^2      3.00862       0   0   0           -0.00000 
      1 Sn1_4d_x^2-y^2       Te2_5s      3.00862       0   0   0           -0.00000 
      1 Sn1_4d_x^2-y^2     Te2_5p_y      3.00862       0   0   0           -0.00038 
      1 Sn1_4d_x^2-y^2     Te2_5p_z      3.00862       0   0   0           -0.00000 
      1 Sn1_4d_x^2-y^2     Te2_5p_x      3.00862       0   0   0           -0.00038 
      1 Sn1_4d_x^2-y^2    Te2_4d_xy      3.00862       0   0   0           -0.00000 
      1 Sn1_4d_x^2-y^2    Te2_4d_yz      3.00862       0   0   0           -0.00000 
      1 Sn1_4d_x^2-y^2   Te2_4d_z^2      3.00862       0   0   0           -0.00000 
      1 Sn1_4d_x^2-y^2    Te2_4d_xz      3.00862       0   0   0           -0.00000 
      1 Sn1_4d_x^2-y^2 Te2_4d_x^2-y^2      3.00862       0   0   0            0.00000 
