
     Program PWSCF v.6.4.1 starts on 16Oct2023 at  8: 5: 4 

     This program is part of the open-source Quantum ESPRESSO suite
     for quantum simulation of materials; please cite
         "P. Giannozzi et al., J. Phys.:Condens. Matter 21 395502 (2009);
         "P. Giannozzi et al., J. Phys.:Condens. Matter 29 465901 (2017);
          URL http://www.quantum-espresso.org", 
     in publications or presentations arising from this work. More details at
     http://www.quantum-espresso.org/quote

     Parallel version (MPI & OpenMP), running on       4 processor cores
     Number of MPI processes:                 4
     Threads/MPI process:                     1

     MPI processes distributed on     1 nodes
     R & G space division:  proc/nbgrp/npool/nimage =       4
     Waiting for input...
     Reading input from standard input
Warning: card &IONS ignored
Warning: card / ignored
Warning: card &CELL ignored
Warning: card / ignored

     Current dimensions of program PWSCF are:
     Max number of different atomic species (ntypx) = 10
     Max number of k-points (npk) =  40000
     Max angular momentum in pseudopotentials (lmaxx) =  3
               file Sn.pz-dn-kjpaw_psl.0.2.UPF: wavefunction(s)  5P 4D renormalized
               file Te.pz-dn-kjpaw_psl.0.2.2.UPF: wavefunction(s)  5S 5P 4D renormalized

     Subspace diagonalization in iterative solution of the eigenvalue problem:
     a serial algorithm will be used

 
     Parallelization info
     --------------------
     sticks:   dense  smooth     PW     G-vecs:    dense   smooth      PW
     Min         515     258     73                52689    18606    2917
     Max         516     259     74                52698    18615    2928
     Sum        2061    1033    293               210773    74437   11679
 

     Title: 
      PbTe_PZ                                                                   


     bravais-lattice index     =            0
     lattice parameter (alat)  =       8.0405  a.u.
     unit-cell volume          =    1559.4281 (a.u.)^3
     number of atoms/cell      =            2
     number of atomic types    =            2
     number of electrons       =        30.00
     number of Kohn-Sham states=           40
     kinetic-energy cutoff     =      50.0000  Ry
     charge density cutoff     =     400.0000  Ry
     convergence threshold     =      1.0E-08
     mixing beta               =       0.7000
     number of iterations used =            8  plain     mixing
     Exchange-correlation      = SLA PZ NOGX NOGC ( 1  1  0  0 0 0)

     celldm(1)=   8.040469  celldm(2)=   0.000000  celldm(3)=   0.000000
     celldm(4)=   0.000000  celldm(5)=   0.000000  celldm(6)=   0.000000

     crystal axes: (cart. coord. in units of alat)
               a(1) = (   1.000000   0.000000   0.000000 )  
               a(2) = (   0.000000   1.000000   0.000000 )  
               a(3) = (   0.000000   0.000000   3.000000 )  

     reciprocal axes: (cart. coord. in units 2 pi/alat)
               b(1) = (  1.000000  0.000000  0.000000 )  
               b(2) = (  0.000000  1.000000  0.000000 )  
               b(3) = (  0.000000  0.000000  0.333333 )  


     PseudoPot. # 1 for Sn read from file:
     /home/raagya/pseudo/Sn.pz-dn-kjpaw_psl.0.2.UPF
     MD5 check sum: 4ae5dc40354335ee230663518864dfb4
     Pseudo is Projector augmented-wave + core cor, Zval = 14.0
     Generated using "atomic" code by A. Dal Corso v.5.0.2 svn rev. 9415
     Shape of augmentation charge: BESSEL
     Using radial grid of 1243 points,  6 beta functions with: 
                l(1) =   0
                l(2) =   0
                l(3) =   1
                l(4) =   1
                l(5) =   2
                l(6) =   2
     Q(r) pseudized with 0 coefficients 


     PseudoPot. # 2 for Te read from file:
     /home/raagya/pseudo/Te.pz-dn-kjpaw_psl.0.2.2.UPF
     MD5 check sum: 848335cf92ad1717ddde3348b6640de7
     Pseudo is Projector augmented-wave + core cor, Zval = 16.0
     Generated using "atomic" code by A. Dal Corso v.5.0.2 svn rev. 9415
     Shape of augmentation charge: PSQ
     Using radial grid of 1245 points,  6 beta functions with: 
                l(1) =   0
                l(2) =   0
                l(3) =   1
                l(4) =   1
                l(5) =   2
                l(6) =   2
     Q(r) pseudized with 0 coefficients 


     atomic species   valence    mass     pseudopotential
        Sn            14.00   118.71000     Sn( 1.00)
        Te            16.00   127.60000     Te( 1.00)

     No symmetry found


                                    s                        frac. trans.

      isym =  1     identity                                     

 cryst.   s( 1) = (     1          0          0      )
                  (     0          1          0      )
                  (     0          0          1      )

 cart.    s( 1) = (  1.0000000  0.0000000  0.0000000 )
                  (  0.0000000  1.0000000  0.0000000 )
                  (  0.0000000  0.0000000  1.0000000 )


   Cartesian axes

     site n.     atom                  positions (alat units)
         1           Sn  tau(   1) = (   0.0000000   0.0000000   0.0000000  )
         2           Te  tau(   2) = (   0.5000000   0.5000000   0.0000000  )

   Crystallographic axes

     site n.     atom                  positions (cryst. coord.)
         1           Sn  tau(   1) = (  0.0000000  0.0000000  0.0000000  )
         2           Te  tau(   2) = (  0.5000000  0.5000000  0.0000000  )

     number of k points=  1600  Fermi-Dirac smearing, width (Ry)=  0.0030
                       cart. coord. in units 2pi/alat
        k(    1) = (   0.0000000   0.0000000   0.0000000), wk =   0.0012500
        k(    2) = (   0.0000000   0.0250000   0.0000000), wk =   0.0012500
        k(    3) = (   0.0000000   0.0500000   0.0000000), wk =   0.0012500
        k(    4) = (   0.0000000   0.0750000   0.0000000), wk =   0.0012500
        k(    5) = (   0.0000000   0.1000000   0.0000000), wk =   0.0012500
        k(    6) = (   0.0000000   0.1250000   0.0000000), wk =   0.0012500
        k(    7) = (   0.0000000   0.1500000   0.0000000), wk =   0.0012500
        k(    8) = (   0.0000000   0.1750000   0.0000000), wk =   0.0012500
        k(    9) = (   0.0000000   0.2000000   0.0000000), wk =   0.0012500
        k(   10) = (   0.0000000   0.2250000   0.0000000), wk =   0.0012500
        k(   11) = (   0.0000000   0.2500000   0.0000000), wk =   0.0012500
        k(   12) = (   0.0000000   0.2750000   0.0000000), wk =   0.0012500
        k(   13) = (   0.0000000   0.3000000   0.0000000), wk =   0.0012500
        k(   14) = (   0.0000000   0.3250000   0.0000000), wk =   0.0012500
        k(   15) = (   0.0000000   0.3500000   0.0000000), wk =   0.0012500
        k(   16) = (   0.0000000   0.3750000   0.0000000), wk =   0.0012500
        k(   17) = (   0.0000000   0.4000000   0.0000000), wk =   0.0012500
        k(   18) = (   0.0000000   0.4250000   0.0000000), wk =   0.0012500
        k(   19) = (   0.0000000   0.4500000   0.0000000), wk =   0.0012500
        k(   20) = (   0.0000000   0.4750000   0.0000000), wk =   0.0012500
        k(   21) = (   0.0000000  -0.5000000   0.0000000), wk =   0.0012500
        k(   22) = (   0.0000000  -0.4750000   0.0000000), wk =   0.0012500
        k(   23) = (   0.0000000  -0.4500000   0.0000000), wk =   0.0012500
        k(   24) = (   0.0000000  -0.4250000   0.0000000), wk =   0.0012500
        k(   25) = (   0.0000000  -0.4000000   0.0000000), wk =   0.0012500
        k(   26) = (   0.0000000  -0.3750000   0.0000000), wk =   0.0012500
        k(   27) = (   0.0000000  -0.3500000   0.0000000), wk =   0.0012500
        k(   28) = (   0.0000000  -0.3250000   0.0000000), wk =   0.0012500
        k(   29) = (   0.0000000  -0.3000000   0.0000000), wk =   0.0012500
        k(   30) = (   0.0000000  -0.2750000   0.0000000), wk =   0.0012500
        k(   31) = (   0.0000000  -0.2500000   0.0000000), wk =   0.0012500
        k(   32) = (   0.0000000  -0.2250000   0.0000000), wk =   0.0012500
        k(   33) = (   0.0000000  -0.2000000   0.0000000), wk =   0.0012500
        k(   34) = (   0.0000000  -0.1750000   0.0000000), wk =   0.0012500
        k(   35) = (   0.0000000  -0.1500000   0.0000000), wk =   0.0012500
        k(   36) = (   0.0000000  -0.1250000   0.0000000), wk =   0.0012500
        k(   37) = (   0.0000000  -0.1000000   0.0000000), wk =   0.0012500
        k(   38) = (   0.0000000  -0.0750000   0.0000000), wk =   0.0012500
        k(   39) = (   0.0000000  -0.0500000   0.0000000), wk =   0.0012500
        k(   40) = (   0.0000000  -0.0250000   0.0000000), wk =   0.0012500
        k(   41) = (   0.0250000   0.0000000   0.0000000), wk =   0.0012500
        k(   42) = (   0.0250000   0.0250000   0.0000000), wk =   0.0012500
        k(   43) = (   0.0250000   0.0500000   0.0000000), wk =   0.0012500
        k(   44) = (   0.0250000   0.0750000   0.0000000), wk =   0.0012500
        k(   45) = (   0.0250000   0.1000000   0.0000000), wk =   0.0012500
        k(   46) = (   0.0250000   0.1250000   0.0000000), wk =   0.0012500
        k(   47) = (   0.0250000   0.1500000   0.0000000), wk =   0.0012500
        k(   48) = (   0.0250000   0.1750000   0.0000000), wk =   0.0012500
        k(   49) = (   0.0250000   0.2000000   0.0000000), wk =   0.0012500
        k(   50) = (   0.0250000   0.2250000   0.0000000), wk =   0.0012500
        k(   51) = (   0.0250000   0.2500000   0.0000000), wk =   0.0012500
        k(   52) = (   0.0250000   0.2750000   0.0000000), wk =   0.0012500
        k(   53) = (   0.0250000   0.3000000   0.0000000), wk =   0.0012500
        k(   54) = (   0.0250000   0.3250000   0.0000000), wk =   0.0012500
        k(   55) = (   0.0250000   0.3500000   0.0000000), wk =   0.0012500
        k(   56) = (   0.0250000   0.3750000   0.0000000), wk =   0.0012500
        k(   57) = (   0.0250000   0.4000000   0.0000000), wk =   0.0012500
        k(   58) = (   0.0250000   0.4250000   0.0000000), wk =   0.0012500
        k(   59) = (   0.0250000   0.4500000   0.0000000), wk =   0.0012500
        k(   60) = (   0.0250000   0.4750000   0.0000000), wk =   0.0012500
        k(   61) = (   0.0250000  -0.5000000   0.0000000), wk =   0.0012500
        k(   62) = (   0.0250000  -0.4750000   0.0000000), wk =   0.0012500
        k(   63) = (   0.0250000  -0.4500000   0.0000000), wk =   0.0012500
        k(   64) = (   0.0250000  -0.4250000   0.0000000), wk =   0.0012500
        k(   65) = (   0.0250000  -0.4000000   0.0000000), wk =   0.0012500
        k(   66) = (   0.0250000  -0.3750000   0.0000000), wk =   0.0012500
        k(   67) = (   0.0250000  -0.3500000   0.0000000), wk =   0.0012500
        k(   68) = (   0.0250000  -0.3250000   0.0000000), wk =   0.0012500
        k(   69) = (   0.0250000  -0.3000000   0.0000000), wk =   0.0012500
        k(   70) = (   0.0250000  -0.2750000   0.0000000), wk =   0.0012500
        k(   71) = (   0.0250000  -0.2500000   0.0000000), wk =   0.0012500
        k(   72) = (   0.0250000  -0.2250000   0.0000000), wk =   0.0012500
        k(   73) = (   0.0250000  -0.2000000   0.0000000), wk =   0.0012500
        k(   74) = (   0.0250000  -0.1750000   0.0000000), wk =   0.0012500
        k(   75) = (   0.0250000  -0.1500000   0.0000000), wk =   0.0012500
        k(   76) = (   0.0250000  -0.1250000   0.0000000), wk =   0.0012500
        k(   77) = (   0.0250000  -0.1000000   0.0000000), wk =   0.0012500
        k(   78) = (   0.0250000  -0.0750000   0.0000000), wk =   0.0012500
        k(   79) = (   0.0250000  -0.0500000   0.0000000), wk =   0.0012500
        k(   80) = (   0.0250000  -0.0250000   0.0000000), wk =   0.0012500
        k(   81) = (   0.0500000   0.0000000   0.0000000), wk =   0.0012500
        k(   82) = (   0.0500000   0.0250000   0.0000000), wk =   0.0012500
        k(   83) = (   0.0500000   0.0500000   0.0000000), wk =   0.0012500
        k(   84) = (   0.0500000   0.0750000   0.0000000), wk =   0.0012500
        k(   85) = (   0.0500000   0.1000000   0.0000000), wk =   0.0012500
        k(   86) = (   0.0500000   0.1250000   0.0000000), wk =   0.0012500
        k(   87) = (   0.0500000   0.1500000   0.0000000), wk =   0.0012500
        k(   88) = (   0.0500000   0.1750000   0.0000000), wk =   0.0012500
        k(   89) = (   0.0500000   0.2000000   0.0000000), wk =   0.0012500
        k(   90) = (   0.0500000   0.2250000   0.0000000), wk =   0.0012500
        k(   91) = (   0.0500000   0.2500000   0.0000000), wk =   0.0012500
        k(   92) = (   0.0500000   0.2750000   0.0000000), wk =   0.0012500
        k(   93) = (   0.0500000   0.3000000   0.0000000), wk =   0.0012500
        k(   94) = (   0.0500000   0.3250000   0.0000000), wk =   0.0012500
        k(   95) = (   0.0500000   0.3500000   0.0000000), wk =   0.0012500
        k(   96) = (   0.0500000   0.3750000   0.0000000), wk =   0.0012500
        k(   97) = (   0.0500000   0.4000000   0.0000000), wk =   0.0012500
        k(   98) = (   0.0500000   0.4250000   0.0000000), wk =   0.0012500
        k(   99) = (   0.0500000   0.4500000   0.0000000), wk =   0.0012500
        k(  100) = (   0.0500000   0.4750000   0.0000000), wk =   0.0012500
        k(  101) = (   0.0500000  -0.5000000   0.0000000), wk =   0.0012500
        k(  102) = (   0.0500000  -0.4750000   0.0000000), wk =   0.0012500
        k(  103) = (   0.0500000  -0.4500000   0.0000000), wk =   0.0012500
        k(  104) = (   0.0500000  -0.4250000   0.0000000), wk =   0.0012500
        k(  105) = (   0.0500000  -0.4000000   0.0000000), wk =   0.0012500
        k(  106) = (   0.0500000  -0.3750000   0.0000000), wk =   0.0012500
        k(  107) = (   0.0500000  -0.3500000   0.0000000), wk =   0.0012500
        k(  108) = (   0.0500000  -0.3250000   0.0000000), wk =   0.0012500
        k(  109) = (   0.0500000  -0.3000000   0.0000000), wk =   0.0012500
        k(  110) = (   0.0500000  -0.2750000   0.0000000), wk =   0.0012500
        k(  111) = (   0.0500000  -0.2500000   0.0000000), wk =   0.0012500
        k(  112) = (   0.0500000  -0.2250000   0.0000000), wk =   0.0012500
        k(  113) = (   0.0500000  -0.2000000   0.0000000), wk =   0.0012500
        k(  114) = (   0.0500000  -0.1750000   0.0000000), wk =   0.0012500
        k(  115) = (   0.0500000  -0.1500000   0.0000000), wk =   0.0012500
        k(  116) = (   0.0500000  -0.1250000   0.0000000), wk =   0.0012500
        k(  117) = (   0.0500000  -0.1000000   0.0000000), wk =   0.0012500
        k(  118) = (   0.0500000  -0.0750000   0.0000000), wk =   0.0012500
        k(  119) = (   0.0500000  -0.0500000   0.0000000), wk =   0.0012500
        k(  120) = (   0.0500000  -0.0250000   0.0000000), wk =   0.0012500
        k(  121) = (   0.0750000   0.0000000   0.0000000), wk =   0.0012500
        k(  122) = (   0.0750000   0.0250000   0.0000000), wk =   0.0012500
        k(  123) = (   0.0750000   0.0500000   0.0000000), wk =   0.0012500
        k(  124) = (   0.0750000   0.0750000   0.0000000), wk =   0.0012500
        k(  125) = (   0.0750000   0.1000000   0.0000000), wk =   0.0012500
        k(  126) = (   0.0750000   0.1250000   0.0000000), wk =   0.0012500
        k(  127) = (   0.0750000   0.1500000   0.0000000), wk =   0.0012500
        k(  128) = (   0.0750000   0.1750000   0.0000000), wk =   0.0012500
        k(  129) = (   0.0750000   0.2000000   0.0000000), wk =   0.0012500
        k(  130) = (   0.0750000   0.2250000   0.0000000), wk =   0.0012500
        k(  131) = (   0.0750000   0.2500000   0.0000000), wk =   0.0012500
        k(  132) = (   0.0750000   0.2750000   0.0000000), wk =   0.0012500
        k(  133) = (   0.0750000   0.3000000   0.0000000), wk =   0.0012500
        k(  134) = (   0.0750000   0.3250000   0.0000000), wk =   0.0012500
        k(  135) = (   0.0750000   0.3500000   0.0000000), wk =   0.0012500
        k(  136) = (   0.0750000   0.3750000   0.0000000), wk =   0.0012500
        k(  137) = (   0.0750000   0.4000000   0.0000000), wk =   0.0012500
        k(  138) = (   0.0750000   0.4250000   0.0000000), wk =   0.0012500
        k(  139) = (   0.0750000   0.4500000   0.0000000), wk =   0.0012500
        k(  140) = (   0.0750000   0.4750000   0.0000000), wk =   0.0012500
        k(  141) = (   0.0750000  -0.5000000   0.0000000), wk =   0.0012500
        k(  142) = (   0.0750000  -0.4750000   0.0000000), wk =   0.0012500
        k(  143) = (   0.0750000  -0.4500000   0.0000000), wk =   0.0012500
        k(  144) = (   0.0750000  -0.4250000   0.0000000), wk =   0.0012500
        k(  145) = (   0.0750000  -0.4000000   0.0000000), wk =   0.0012500
        k(  146) = (   0.0750000  -0.3750000   0.0000000), wk =   0.0012500
        k(  147) = (   0.0750000  -0.3500000   0.0000000), wk =   0.0012500
        k(  148) = (   0.0750000  -0.3250000   0.0000000), wk =   0.0012500
        k(  149) = (   0.0750000  -0.3000000   0.0000000), wk =   0.0012500
        k(  150) = (   0.0750000  -0.2750000   0.0000000), wk =   0.0012500
        k(  151) = (   0.0750000  -0.2500000   0.0000000), wk =   0.0012500
        k(  152) = (   0.0750000  -0.2250000   0.0000000), wk =   0.0012500
        k(  153) = (   0.0750000  -0.2000000   0.0000000), wk =   0.0012500
        k(  154) = (   0.0750000  -0.1750000   0.0000000), wk =   0.0012500
        k(  155) = (   0.0750000  -0.1500000   0.0000000), wk =   0.0012500
        k(  156) = (   0.0750000  -0.1250000   0.0000000), wk =   0.0012500
        k(  157) = (   0.0750000  -0.1000000   0.0000000), wk =   0.0012500
        k(  158) = (   0.0750000  -0.0750000   0.0000000), wk =   0.0012500
        k(  159) = (   0.0750000  -0.0500000   0.0000000), wk =   0.0012500
        k(  160) = (   0.0750000  -0.0250000   0.0000000), wk =   0.0012500
        k(  161) = (   0.1000000   0.0000000   0.0000000), wk =   0.0012500
        k(  162) = (   0.1000000   0.0250000   0.0000000), wk =   0.0012500
        k(  163) = (   0.1000000   0.0500000   0.0000000), wk =   0.0012500
        k(  164) = (   0.1000000   0.0750000   0.0000000), wk =   0.0012500
        k(  165) = (   0.1000000   0.1000000   0.0000000), wk =   0.0012500
        k(  166) = (   0.1000000   0.1250000   0.0000000), wk =   0.0012500
        k(  167) = (   0.1000000   0.1500000   0.0000000), wk =   0.0012500
        k(  168) = (   0.1000000   0.1750000   0.0000000), wk =   0.0012500
        k(  169) = (   0.1000000   0.2000000   0.0000000), wk =   0.0012500
        k(  170) = (   0.1000000   0.2250000   0.0000000), wk =   0.0012500
        k(  171) = (   0.1000000   0.2500000   0.0000000), wk =   0.0012500
        k(  172) = (   0.1000000   0.2750000   0.0000000), wk =   0.0012500
        k(  173) = (   0.1000000   0.3000000   0.0000000), wk =   0.0012500
        k(  174) = (   0.1000000   0.3250000   0.0000000), wk =   0.0012500
        k(  175) = (   0.1000000   0.3500000   0.0000000), wk =   0.0012500
        k(  176) = (   0.1000000   0.3750000   0.0000000), wk =   0.0012500
        k(  177) = (   0.1000000   0.4000000   0.0000000), wk =   0.0012500
        k(  178) = (   0.1000000   0.4250000   0.0000000), wk =   0.0012500
        k(  179) = (   0.1000000   0.4500000   0.0000000), wk =   0.0012500
        k(  180) = (   0.1000000   0.4750000   0.0000000), wk =   0.0012500
        k(  181) = (   0.1000000  -0.5000000   0.0000000), wk =   0.0012500
        k(  182) = (   0.1000000  -0.4750000   0.0000000), wk =   0.0012500
        k(  183) = (   0.1000000  -0.4500000   0.0000000), wk =   0.0012500
        k(  184) = (   0.1000000  -0.4250000   0.0000000), wk =   0.0012500
        k(  185) = (   0.1000000  -0.4000000   0.0000000), wk =   0.0012500
        k(  186) = (   0.1000000  -0.3750000   0.0000000), wk =   0.0012500
        k(  187) = (   0.1000000  -0.3500000   0.0000000), wk =   0.0012500
        k(  188) = (   0.1000000  -0.3250000   0.0000000), wk =   0.0012500
        k(  189) = (   0.1000000  -0.3000000   0.0000000), wk =   0.0012500
        k(  190) = (   0.1000000  -0.2750000   0.0000000), wk =   0.0012500
        k(  191) = (   0.1000000  -0.2500000   0.0000000), wk =   0.0012500
        k(  192) = (   0.1000000  -0.2250000   0.0000000), wk =   0.0012500
        k(  193) = (   0.1000000  -0.2000000   0.0000000), wk =   0.0012500
        k(  194) = (   0.1000000  -0.1750000   0.0000000), wk =   0.0012500
        k(  195) = (   0.1000000  -0.1500000   0.0000000), wk =   0.0012500
        k(  196) = (   0.1000000  -0.1250000   0.0000000), wk =   0.0012500
        k(  197) = (   0.1000000  -0.1000000   0.0000000), wk =   0.0012500
        k(  198) = (   0.1000000  -0.0750000   0.0000000), wk =   0.0012500
        k(  199) = (   0.1000000  -0.0500000   0.0000000), wk =   0.0012500
        k(  200) = (   0.1000000  -0.0250000   0.0000000), wk =   0.0012500
        k(  201) = (   0.1250000   0.0000000   0.0000000), wk =   0.0012500
        k(  202) = (   0.1250000   0.0250000   0.0000000), wk =   0.0012500
        k(  203) = (   0.1250000   0.0500000   0.0000000), wk =   0.0012500
        k(  204) = (   0.1250000   0.0750000   0.0000000), wk =   0.0012500
        k(  205) = (   0.1250000   0.1000000   0.0000000), wk =   0.0012500
        k(  206) = (   0.1250000   0.1250000   0.0000000), wk =   0.0012500
        k(  207) = (   0.1250000   0.1500000   0.0000000), wk =   0.0012500
        k(  208) = (   0.1250000   0.1750000   0.0000000), wk =   0.0012500
        k(  209) = (   0.1250000   0.2000000   0.0000000), wk =   0.0012500
        k(  210) = (   0.1250000   0.2250000   0.0000000), wk =   0.0012500
        k(  211) = (   0.1250000   0.2500000   0.0000000), wk =   0.0012500
        k(  212) = (   0.1250000   0.2750000   0.0000000), wk =   0.0012500
        k(  213) = (   0.1250000   0.3000000   0.0000000), wk =   0.0012500
        k(  214) = (   0.1250000   0.3250000   0.0000000), wk =   0.0012500
        k(  215) = (   0.1250000   0.3500000   0.0000000), wk =   0.0012500
        k(  216) = (   0.1250000   0.3750000   0.0000000), wk =   0.0012500
        k(  217) = (   0.1250000   0.4000000   0.0000000), wk =   0.0012500
        k(  218) = (   0.1250000   0.4250000   0.0000000), wk =   0.0012500
        k(  219) = (   0.1250000   0.4500000   0.0000000), wk =   0.0012500
        k(  220) = (   0.1250000   0.4750000   0.0000000), wk =   0.0012500
        k(  221) = (   0.1250000  -0.5000000   0.0000000), wk =   0.0012500
        k(  222) = (   0.1250000  -0.4750000   0.0000000), wk =   0.0012500
        k(  223) = (   0.1250000  -0.4500000   0.0000000), wk =   0.0012500
        k(  224) = (   0.1250000  -0.4250000   0.0000000), wk =   0.0012500
        k(  225) = (   0.1250000  -0.4000000   0.0000000), wk =   0.0012500
        k(  226) = (   0.1250000  -0.3750000   0.0000000), wk =   0.0012500
        k(  227) = (   0.1250000  -0.3500000   0.0000000), wk =   0.0012500
        k(  228) = (   0.1250000  -0.3250000   0.0000000), wk =   0.0012500
        k(  229) = (   0.1250000  -0.3000000   0.0000000), wk =   0.0012500
        k(  230) = (   0.1250000  -0.2750000   0.0000000), wk =   0.0012500
        k(  231) = (   0.1250000  -0.2500000   0.0000000), wk =   0.0012500
        k(  232) = (   0.1250000  -0.2250000   0.0000000), wk =   0.0012500
        k(  233) = (   0.1250000  -0.2000000   0.0000000), wk =   0.0012500
        k(  234) = (   0.1250000  -0.1750000   0.0000000), wk =   0.0012500
        k(  235) = (   0.1250000  -0.1500000   0.0000000), wk =   0.0012500
        k(  236) = (   0.1250000  -0.1250000   0.0000000), wk =   0.0012500
        k(  237) = (   0.1250000  -0.1000000   0.0000000), wk =   0.0012500
        k(  238) = (   0.1250000  -0.0750000   0.0000000), wk =   0.0012500
        k(  239) = (   0.1250000  -0.0500000   0.0000000), wk =   0.0012500
        k(  240) = (   0.1250000  -0.0250000   0.0000000), wk =   0.0012500
        k(  241) = (   0.1500000   0.0000000   0.0000000), wk =   0.0012500
        k(  242) = (   0.1500000   0.0250000   0.0000000), wk =   0.0012500
        k(  243) = (   0.1500000   0.0500000   0.0000000), wk =   0.0012500
        k(  244) = (   0.1500000   0.0750000   0.0000000), wk =   0.0012500
        k(  245) = (   0.1500000   0.1000000   0.0000000), wk =   0.0012500
        k(  246) = (   0.1500000   0.1250000   0.0000000), wk =   0.0012500
        k(  247) = (   0.1500000   0.1500000   0.0000000), wk =   0.0012500
        k(  248) = (   0.1500000   0.1750000   0.0000000), wk =   0.0012500
        k(  249) = (   0.1500000   0.2000000   0.0000000), wk =   0.0012500
        k(  250) = (   0.1500000   0.2250000   0.0000000), wk =   0.0012500
        k(  251) = (   0.1500000   0.2500000   0.0000000), wk =   0.0012500
        k(  252) = (   0.1500000   0.2750000   0.0000000), wk =   0.0012500
        k(  253) = (   0.1500000   0.3000000   0.0000000), wk =   0.0012500
        k(  254) = (   0.1500000   0.3250000   0.0000000), wk =   0.0012500
        k(  255) = (   0.1500000   0.3500000   0.0000000), wk =   0.0012500
        k(  256) = (   0.1500000   0.3750000   0.0000000), wk =   0.0012500
        k(  257) = (   0.1500000   0.4000000   0.0000000), wk =   0.0012500
        k(  258) = (   0.1500000   0.4250000   0.0000000), wk =   0.0012500
        k(  259) = (   0.1500000   0.4500000   0.0000000), wk =   0.0012500
        k(  260) = (   0.1500000   0.4750000   0.0000000), wk =   0.0012500
        k(  261) = (   0.1500000  -0.5000000   0.0000000), wk =   0.0012500
        k(  262) = (   0.1500000  -0.4750000   0.0000000), wk =   0.0012500
        k(  263) = (   0.1500000  -0.4500000   0.0000000), wk =   0.0012500
        k(  264) = (   0.1500000  -0.4250000   0.0000000), wk =   0.0012500
        k(  265) = (   0.1500000  -0.4000000   0.0000000), wk =   0.0012500
        k(  266) = (   0.1500000  -0.3750000   0.0000000), wk =   0.0012500
        k(  267) = (   0.1500000  -0.3500000   0.0000000), wk =   0.0012500
        k(  268) = (   0.1500000  -0.3250000   0.0000000), wk =   0.0012500
        k(  269) = (   0.1500000  -0.3000000   0.0000000), wk =   0.0012500
        k(  270) = (   0.1500000  -0.2750000   0.0000000), wk =   0.0012500
        k(  271) = (   0.1500000  -0.2500000   0.0000000), wk =   0.0012500
        k(  272) = (   0.1500000  -0.2250000   0.0000000), wk =   0.0012500
        k(  273) = (   0.1500000  -0.2000000   0.0000000), wk =   0.0012500
        k(  274) = (   0.1500000  -0.1750000   0.0000000), wk =   0.0012500
        k(  275) = (   0.1500000  -0.1500000   0.0000000), wk =   0.0012500
        k(  276) = (   0.1500000  -0.1250000   0.0000000), wk =   0.0012500
        k(  277) = (   0.1500000  -0.1000000   0.0000000), wk =   0.0012500
        k(  278) = (   0.1500000  -0.0750000   0.0000000), wk =   0.0012500
        k(  279) = (   0.1500000  -0.0500000   0.0000000), wk =   0.0012500
        k(  280) = (   0.1500000  -0.0250000   0.0000000), wk =   0.0012500
        k(  281) = (   0.1750000   0.0000000   0.0000000), wk =   0.0012500
        k(  282) = (   0.1750000   0.0250000   0.0000000), wk =   0.0012500
        k(  283) = (   0.1750000   0.0500000   0.0000000), wk =   0.0012500
        k(  284) = (   0.1750000   0.0750000   0.0000000), wk =   0.0012500
        k(  285) = (   0.1750000   0.1000000   0.0000000), wk =   0.0012500
        k(  286) = (   0.1750000   0.1250000   0.0000000), wk =   0.0012500
        k(  287) = (   0.1750000   0.1500000   0.0000000), wk =   0.0012500
        k(  288) = (   0.1750000   0.1750000   0.0000000), wk =   0.0012500
        k(  289) = (   0.1750000   0.2000000   0.0000000), wk =   0.0012500
        k(  290) = (   0.1750000   0.2250000   0.0000000), wk =   0.0012500
        k(  291) = (   0.1750000   0.2500000   0.0000000), wk =   0.0012500
        k(  292) = (   0.1750000   0.2750000   0.0000000), wk =   0.0012500
        k(  293) = (   0.1750000   0.3000000   0.0000000), wk =   0.0012500
        k(  294) = (   0.1750000   0.3250000   0.0000000), wk =   0.0012500
        k(  295) = (   0.1750000   0.3500000   0.0000000), wk =   0.0012500
        k(  296) = (   0.1750000   0.3750000   0.0000000), wk =   0.0012500
        k(  297) = (   0.1750000   0.4000000   0.0000000), wk =   0.0012500
        k(  298) = (   0.1750000   0.4250000   0.0000000), wk =   0.0012500
        k(  299) = (   0.1750000   0.4500000   0.0000000), wk =   0.0012500
        k(  300) = (   0.1750000   0.4750000   0.0000000), wk =   0.0012500
        k(  301) = (   0.1750000  -0.5000000   0.0000000), wk =   0.0012500
        k(  302) = (   0.1750000  -0.4750000   0.0000000), wk =   0.0012500
        k(  303) = (   0.1750000  -0.4500000   0.0000000), wk =   0.0012500
        k(  304) = (   0.1750000  -0.4250000   0.0000000), wk =   0.0012500
        k(  305) = (   0.1750000  -0.4000000   0.0000000), wk =   0.0012500
        k(  306) = (   0.1750000  -0.3750000   0.0000000), wk =   0.0012500
        k(  307) = (   0.1750000  -0.3500000   0.0000000), wk =   0.0012500
        k(  308) = (   0.1750000  -0.3250000   0.0000000), wk =   0.0012500
        k(  309) = (   0.1750000  -0.3000000   0.0000000), wk =   0.0012500
        k(  310) = (   0.1750000  -0.2750000   0.0000000), wk =   0.0012500
        k(  311) = (   0.1750000  -0.2500000   0.0000000), wk =   0.0012500
        k(  312) = (   0.1750000  -0.2250000   0.0000000), wk =   0.0012500
        k(  313) = (   0.1750000  -0.2000000   0.0000000), wk =   0.0012500
        k(  314) = (   0.1750000  -0.1750000   0.0000000), wk =   0.0012500
        k(  315) = (   0.1750000  -0.1500000   0.0000000), wk =   0.0012500
        k(  316) = (   0.1750000  -0.1250000   0.0000000), wk =   0.0012500
        k(  317) = (   0.1750000  -0.1000000   0.0000000), wk =   0.0012500
        k(  318) = (   0.1750000  -0.0750000   0.0000000), wk =   0.0012500
        k(  319) = (   0.1750000  -0.0500000   0.0000000), wk =   0.0012500
        k(  320) = (   0.1750000  -0.0250000   0.0000000), wk =   0.0012500
        k(  321) = (   0.2000000   0.0000000   0.0000000), wk =   0.0012500
        k(  322) = (   0.2000000   0.0250000   0.0000000), wk =   0.0012500
        k(  323) = (   0.2000000   0.0500000   0.0000000), wk =   0.0012500
        k(  324) = (   0.2000000   0.0750000   0.0000000), wk =   0.0012500
        k(  325) = (   0.2000000   0.1000000   0.0000000), wk =   0.0012500
        k(  326) = (   0.2000000   0.1250000   0.0000000), wk =   0.0012500
        k(  327) = (   0.2000000   0.1500000   0.0000000), wk =   0.0012500
        k(  328) = (   0.2000000   0.1750000   0.0000000), wk =   0.0012500
        k(  329) = (   0.2000000   0.2000000   0.0000000), wk =   0.0012500
        k(  330) = (   0.2000000   0.2250000   0.0000000), wk =   0.0012500
        k(  331) = (   0.2000000   0.2500000   0.0000000), wk =   0.0012500
        k(  332) = (   0.2000000   0.2750000   0.0000000), wk =   0.0012500
        k(  333) = (   0.2000000   0.3000000   0.0000000), wk =   0.0012500
        k(  334) = (   0.2000000   0.3250000   0.0000000), wk =   0.0012500
        k(  335) = (   0.2000000   0.3500000   0.0000000), wk =   0.0012500
        k(  336) = (   0.2000000   0.3750000   0.0000000), wk =   0.0012500
        k(  337) = (   0.2000000   0.4000000   0.0000000), wk =   0.0012500
        k(  338) = (   0.2000000   0.4250000   0.0000000), wk =   0.0012500
        k(  339) = (   0.2000000   0.4500000   0.0000000), wk =   0.0012500
        k(  340) = (   0.2000000   0.4750000   0.0000000), wk =   0.0012500
        k(  341) = (   0.2000000  -0.5000000   0.0000000), wk =   0.0012500
        k(  342) = (   0.2000000  -0.4750000   0.0000000), wk =   0.0012500
        k(  343) = (   0.2000000  -0.4500000   0.0000000), wk =   0.0012500
        k(  344) = (   0.2000000  -0.4250000   0.0000000), wk =   0.0012500
        k(  345) = (   0.2000000  -0.4000000   0.0000000), wk =   0.0012500
        k(  346) = (   0.2000000  -0.3750000   0.0000000), wk =   0.0012500
        k(  347) = (   0.2000000  -0.3500000   0.0000000), wk =   0.0012500
        k(  348) = (   0.2000000  -0.3250000   0.0000000), wk =   0.0012500
        k(  349) = (   0.2000000  -0.3000000   0.0000000), wk =   0.0012500
        k(  350) = (   0.2000000  -0.2750000   0.0000000), wk =   0.0012500
        k(  351) = (   0.2000000  -0.2500000   0.0000000), wk =   0.0012500
        k(  352) = (   0.2000000  -0.2250000   0.0000000), wk =   0.0012500
        k(  353) = (   0.2000000  -0.2000000   0.0000000), wk =   0.0012500
        k(  354) = (   0.2000000  -0.1750000   0.0000000), wk =   0.0012500
        k(  355) = (   0.2000000  -0.1500000   0.0000000), wk =   0.0012500
        k(  356) = (   0.2000000  -0.1250000   0.0000000), wk =   0.0012500
        k(  357) = (   0.2000000  -0.1000000   0.0000000), wk =   0.0012500
        k(  358) = (   0.2000000  -0.0750000   0.0000000), wk =   0.0012500
        k(  359) = (   0.2000000  -0.0500000   0.0000000), wk =   0.0012500
        k(  360) = (   0.2000000  -0.0250000   0.0000000), wk =   0.0012500
        k(  361) = (   0.2250000   0.0000000   0.0000000), wk =   0.0012500
        k(  362) = (   0.2250000   0.0250000   0.0000000), wk =   0.0012500
        k(  363) = (   0.2250000   0.0500000   0.0000000), wk =   0.0012500
        k(  364) = (   0.2250000   0.0750000   0.0000000), wk =   0.0012500
        k(  365) = (   0.2250000   0.1000000   0.0000000), wk =   0.0012500
        k(  366) = (   0.2250000   0.1250000   0.0000000), wk =   0.0012500
        k(  367) = (   0.2250000   0.1500000   0.0000000), wk =   0.0012500
        k(  368) = (   0.2250000   0.1750000   0.0000000), wk =   0.0012500
        k(  369) = (   0.2250000   0.2000000   0.0000000), wk =   0.0012500
        k(  370) = (   0.2250000   0.2250000   0.0000000), wk =   0.0012500
        k(  371) = (   0.2250000   0.2500000   0.0000000), wk =   0.0012500
        k(  372) = (   0.2250000   0.2750000   0.0000000), wk =   0.0012500
        k(  373) = (   0.2250000   0.3000000   0.0000000), wk =   0.0012500
        k(  374) = (   0.2250000   0.3250000   0.0000000), wk =   0.0012500
        k(  375) = (   0.2250000   0.3500000   0.0000000), wk =   0.0012500
        k(  376) = (   0.2250000   0.3750000   0.0000000), wk =   0.0012500
        k(  377) = (   0.2250000   0.4000000   0.0000000), wk =   0.0012500
        k(  378) = (   0.2250000   0.4250000   0.0000000), wk =   0.0012500
        k(  379) = (   0.2250000   0.4500000   0.0000000), wk =   0.0012500
        k(  380) = (   0.2250000   0.4750000   0.0000000), wk =   0.0012500
        k(  381) = (   0.2250000  -0.5000000   0.0000000), wk =   0.0012500
        k(  382) = (   0.2250000  -0.4750000   0.0000000), wk =   0.0012500
        k(  383) = (   0.2250000  -0.4500000   0.0000000), wk =   0.0012500
        k(  384) = (   0.2250000  -0.4250000   0.0000000), wk =   0.0012500
        k(  385) = (   0.2250000  -0.4000000   0.0000000), wk =   0.0012500
        k(  386) = (   0.2250000  -0.3750000   0.0000000), wk =   0.0012500
        k(  387) = (   0.2250000  -0.3500000   0.0000000), wk =   0.0012500
        k(  388) = (   0.2250000  -0.3250000   0.0000000), wk =   0.0012500
        k(  389) = (   0.2250000  -0.3000000   0.0000000), wk =   0.0012500
        k(  390) = (   0.2250000  -0.2750000   0.0000000), wk =   0.0012500
        k(  391) = (   0.2250000  -0.2500000   0.0000000), wk =   0.0012500
        k(  392) = (   0.2250000  -0.2250000   0.0000000), wk =   0.0012500
        k(  393) = (   0.2250000  -0.2000000   0.0000000), wk =   0.0012500
        k(  394) = (   0.2250000  -0.1750000   0.0000000), wk =   0.0012500
        k(  395) = (   0.2250000  -0.1500000   0.0000000), wk =   0.0012500
        k(  396) = (   0.2250000  -0.1250000   0.0000000), wk =   0.0012500
        k(  397) = (   0.2250000  -0.1000000   0.0000000), wk =   0.0012500
        k(  398) = (   0.2250000  -0.0750000   0.0000000), wk =   0.0012500
        k(  399) = (   0.2250000  -0.0500000   0.0000000), wk =   0.0012500
        k(  400) = (   0.2250000  -0.0250000   0.0000000), wk =   0.0012500
        k(  401) = (   0.2500000   0.0000000   0.0000000), wk =   0.0012500
        k(  402) = (   0.2500000   0.0250000   0.0000000), wk =   0.0012500
        k(  403) = (   0.2500000   0.0500000   0.0000000), wk =   0.0012500
        k(  404) = (   0.2500000   0.0750000   0.0000000), wk =   0.0012500
        k(  405) = (   0.2500000   0.1000000   0.0000000), wk =   0.0012500
        k(  406) = (   0.2500000   0.1250000   0.0000000), wk =   0.0012500
        k(  407) = (   0.2500000   0.1500000   0.0000000), wk =   0.0012500
        k(  408) = (   0.2500000   0.1750000   0.0000000), wk =   0.0012500
        k(  409) = (   0.2500000   0.2000000   0.0000000), wk =   0.0012500
        k(  410) = (   0.2500000   0.2250000   0.0000000), wk =   0.0012500
        k(  411) = (   0.2500000   0.2500000   0.0000000), wk =   0.0012500
        k(  412) = (   0.2500000   0.2750000   0.0000000), wk =   0.0012500
        k(  413) = (   0.2500000   0.3000000   0.0000000), wk =   0.0012500
        k(  414) = (   0.2500000   0.3250000   0.0000000), wk =   0.0012500
        k(  415) = (   0.2500000   0.3500000   0.0000000), wk =   0.0012500
        k(  416) = (   0.2500000   0.3750000   0.0000000), wk =   0.0012500
        k(  417) = (   0.2500000   0.4000000   0.0000000), wk =   0.0012500
        k(  418) = (   0.2500000   0.4250000   0.0000000), wk =   0.0012500
        k(  419) = (   0.2500000   0.4500000   0.0000000), wk =   0.0012500
        k(  420) = (   0.2500000   0.4750000   0.0000000), wk =   0.0012500
        k(  421) = (   0.2500000  -0.5000000   0.0000000), wk =   0.0012500
        k(  422) = (   0.2500000  -0.4750000   0.0000000), wk =   0.0012500
        k(  423) = (   0.2500000  -0.4500000   0.0000000), wk =   0.0012500
        k(  424) = (   0.2500000  -0.4250000   0.0000000), wk =   0.0012500
        k(  425) = (   0.2500000  -0.4000000   0.0000000), wk =   0.0012500
        k(  426) = (   0.2500000  -0.3750000   0.0000000), wk =   0.0012500
        k(  427) = (   0.2500000  -0.3500000   0.0000000), wk =   0.0012500
        k(  428) = (   0.2500000  -0.3250000   0.0000000), wk =   0.0012500
        k(  429) = (   0.2500000  -0.3000000   0.0000000), wk =   0.0012500
        k(  430) = (   0.2500000  -0.2750000   0.0000000), wk =   0.0012500
        k(  431) = (   0.2500000  -0.2500000   0.0000000), wk =   0.0012500
        k(  432) = (   0.2500000  -0.2250000   0.0000000), wk =   0.0012500
        k(  433) = (   0.2500000  -0.2000000   0.0000000), wk =   0.0012500
        k(  434) = (   0.2500000  -0.1750000   0.0000000), wk =   0.0012500
        k(  435) = (   0.2500000  -0.1500000   0.0000000), wk =   0.0012500
        k(  436) = (   0.2500000  -0.1250000   0.0000000), wk =   0.0012500
        k(  437) = (   0.2500000  -0.1000000   0.0000000), wk =   0.0012500
        k(  438) = (   0.2500000  -0.0750000   0.0000000), wk =   0.0012500
        k(  439) = (   0.2500000  -0.0500000   0.0000000), wk =   0.0012500
        k(  440) = (   0.2500000  -0.0250000   0.0000000), wk =   0.0012500
        k(  441) = (   0.2750000   0.0000000   0.0000000), wk =   0.0012500
        k(  442) = (   0.2750000   0.0250000   0.0000000), wk =   0.0012500
        k(  443) = (   0.2750000   0.0500000   0.0000000), wk =   0.0012500
        k(  444) = (   0.2750000   0.0750000   0.0000000), wk =   0.0012500
        k(  445) = (   0.2750000   0.1000000   0.0000000), wk =   0.0012500
        k(  446) = (   0.2750000   0.1250000   0.0000000), wk =   0.0012500
        k(  447) = (   0.2750000   0.1500000   0.0000000), wk =   0.0012500
        k(  448) = (   0.2750000   0.1750000   0.0000000), wk =   0.0012500
        k(  449) = (   0.2750000   0.2000000   0.0000000), wk =   0.0012500
        k(  450) = (   0.2750000   0.2250000   0.0000000), wk =   0.0012500
        k(  451) = (   0.2750000   0.2500000   0.0000000), wk =   0.0012500
        k(  452) = (   0.2750000   0.2750000   0.0000000), wk =   0.0012500
        k(  453) = (   0.2750000   0.3000000   0.0000000), wk =   0.0012500
        k(  454) = (   0.2750000   0.3250000   0.0000000), wk =   0.0012500
        k(  455) = (   0.2750000   0.3500000   0.0000000), wk =   0.0012500
        k(  456) = (   0.2750000   0.3750000   0.0000000), wk =   0.0012500
        k(  457) = (   0.2750000   0.4000000   0.0000000), wk =   0.0012500
        k(  458) = (   0.2750000   0.4250000   0.0000000), wk =   0.0012500
        k(  459) = (   0.2750000   0.4500000   0.0000000), wk =   0.0012500
        k(  460) = (   0.2750000   0.4750000   0.0000000), wk =   0.0012500
        k(  461) = (   0.2750000  -0.5000000   0.0000000), wk =   0.0012500
        k(  462) = (   0.2750000  -0.4750000   0.0000000), wk =   0.0012500
        k(  463) = (   0.2750000  -0.4500000   0.0000000), wk =   0.0012500
        k(  464) = (   0.2750000  -0.4250000   0.0000000), wk =   0.0012500
        k(  465) = (   0.2750000  -0.4000000   0.0000000), wk =   0.0012500
        k(  466) = (   0.2750000  -0.3750000   0.0000000), wk =   0.0012500
        k(  467) = (   0.2750000  -0.3500000   0.0000000), wk =   0.0012500
        k(  468) = (   0.2750000  -0.3250000   0.0000000), wk =   0.0012500
        k(  469) = (   0.2750000  -0.3000000   0.0000000), wk =   0.0012500
        k(  470) = (   0.2750000  -0.2750000   0.0000000), wk =   0.0012500
        k(  471) = (   0.2750000  -0.2500000   0.0000000), wk =   0.0012500
        k(  472) = (   0.2750000  -0.2250000   0.0000000), wk =   0.0012500
        k(  473) = (   0.2750000  -0.2000000   0.0000000), wk =   0.0012500
        k(  474) = (   0.2750000  -0.1750000   0.0000000), wk =   0.0012500
        k(  475) = (   0.2750000  -0.1500000   0.0000000), wk =   0.0012500
        k(  476) = (   0.2750000  -0.1250000   0.0000000), wk =   0.0012500
        k(  477) = (   0.2750000  -0.1000000   0.0000000), wk =   0.0012500
        k(  478) = (   0.2750000  -0.0750000   0.0000000), wk =   0.0012500
        k(  479) = (   0.2750000  -0.0500000   0.0000000), wk =   0.0012500
        k(  480) = (   0.2750000  -0.0250000   0.0000000), wk =   0.0012500
        k(  481) = (   0.3000000   0.0000000   0.0000000), wk =   0.0012500
        k(  482) = (   0.3000000   0.0250000   0.0000000), wk =   0.0012500
        k(  483) = (   0.3000000   0.0500000   0.0000000), wk =   0.0012500
        k(  484) = (   0.3000000   0.0750000   0.0000000), wk =   0.0012500
        k(  485) = (   0.3000000   0.1000000   0.0000000), wk =   0.0012500
        k(  486) = (   0.3000000   0.1250000   0.0000000), wk =   0.0012500
        k(  487) = (   0.3000000   0.1500000   0.0000000), wk =   0.0012500
        k(  488) = (   0.3000000   0.1750000   0.0000000), wk =   0.0012500
        k(  489) = (   0.3000000   0.2000000   0.0000000), wk =   0.0012500
        k(  490) = (   0.3000000   0.2250000   0.0000000), wk =   0.0012500
        k(  491) = (   0.3000000   0.2500000   0.0000000), wk =   0.0012500
        k(  492) = (   0.3000000   0.2750000   0.0000000), wk =   0.0012500
        k(  493) = (   0.3000000   0.3000000   0.0000000), wk =   0.0012500
        k(  494) = (   0.3000000   0.3250000   0.0000000), wk =   0.0012500
        k(  495) = (   0.3000000   0.3500000   0.0000000), wk =   0.0012500
        k(  496) = (   0.3000000   0.3750000   0.0000000), wk =   0.0012500
        k(  497) = (   0.3000000   0.4000000   0.0000000), wk =   0.0012500
        k(  498) = (   0.3000000   0.4250000   0.0000000), wk =   0.0012500
        k(  499) = (   0.3000000   0.4500000   0.0000000), wk =   0.0012500
        k(  500) = (   0.3000000   0.4750000   0.0000000), wk =   0.0012500
        k(  501) = (   0.3000000  -0.5000000   0.0000000), wk =   0.0012500
        k(  502) = (   0.3000000  -0.4750000   0.0000000), wk =   0.0012500
        k(  503) = (   0.3000000  -0.4500000   0.0000000), wk =   0.0012500
        k(  504) = (   0.3000000  -0.4250000   0.0000000), wk =   0.0012500
        k(  505) = (   0.3000000  -0.4000000   0.0000000), wk =   0.0012500
        k(  506) = (   0.3000000  -0.3750000   0.0000000), wk =   0.0012500
        k(  507) = (   0.3000000  -0.3500000   0.0000000), wk =   0.0012500
        k(  508) = (   0.3000000  -0.3250000   0.0000000), wk =   0.0012500
        k(  509) = (   0.3000000  -0.3000000   0.0000000), wk =   0.0012500
        k(  510) = (   0.3000000  -0.2750000   0.0000000), wk =   0.0012500
        k(  511) = (   0.3000000  -0.2500000   0.0000000), wk =   0.0012500
        k(  512) = (   0.3000000  -0.2250000   0.0000000), wk =   0.0012500
        k(  513) = (   0.3000000  -0.2000000   0.0000000), wk =   0.0012500
        k(  514) = (   0.3000000  -0.1750000   0.0000000), wk =   0.0012500
        k(  515) = (   0.3000000  -0.1500000   0.0000000), wk =   0.0012500
        k(  516) = (   0.3000000  -0.1250000   0.0000000), wk =   0.0012500
        k(  517) = (   0.3000000  -0.1000000   0.0000000), wk =   0.0012500
        k(  518) = (   0.3000000  -0.0750000   0.0000000), wk =   0.0012500
        k(  519) = (   0.3000000  -0.0500000   0.0000000), wk =   0.0012500
        k(  520) = (   0.3000000  -0.0250000   0.0000000), wk =   0.0012500
        k(  521) = (   0.3250000   0.0000000   0.0000000), wk =   0.0012500
        k(  522) = (   0.3250000   0.0250000   0.0000000), wk =   0.0012500
        k(  523) = (   0.3250000   0.0500000   0.0000000), wk =   0.0012500
        k(  524) = (   0.3250000   0.0750000   0.0000000), wk =   0.0012500
        k(  525) = (   0.3250000   0.1000000   0.0000000), wk =   0.0012500
        k(  526) = (   0.3250000   0.1250000   0.0000000), wk =   0.0012500
        k(  527) = (   0.3250000   0.1500000   0.0000000), wk =   0.0012500
        k(  528) = (   0.3250000   0.1750000   0.0000000), wk =   0.0012500
        k(  529) = (   0.3250000   0.2000000   0.0000000), wk =   0.0012500
        k(  530) = (   0.3250000   0.2250000   0.0000000), wk =   0.0012500
        k(  531) = (   0.3250000   0.2500000   0.0000000), wk =   0.0012500
        k(  532) = (   0.3250000   0.2750000   0.0000000), wk =   0.0012500
        k(  533) = (   0.3250000   0.3000000   0.0000000), wk =   0.0012500
        k(  534) = (   0.3250000   0.3250000   0.0000000), wk =   0.0012500
        k(  535) = (   0.3250000   0.3500000   0.0000000), wk =   0.0012500
        k(  536) = (   0.3250000   0.3750000   0.0000000), wk =   0.0012500
        k(  537) = (   0.3250000   0.4000000   0.0000000), wk =   0.0012500
        k(  538) = (   0.3250000   0.4250000   0.0000000), wk =   0.0012500
        k(  539) = (   0.3250000   0.4500000   0.0000000), wk =   0.0012500
        k(  540) = (   0.3250000   0.4750000   0.0000000), wk =   0.0012500
        k(  541) = (   0.3250000  -0.5000000   0.0000000), wk =   0.0012500
        k(  542) = (   0.3250000  -0.4750000   0.0000000), wk =   0.0012500
        k(  543) = (   0.3250000  -0.4500000   0.0000000), wk =   0.0012500
        k(  544) = (   0.3250000  -0.4250000   0.0000000), wk =   0.0012500
        k(  545) = (   0.3250000  -0.4000000   0.0000000), wk =   0.0012500
        k(  546) = (   0.3250000  -0.3750000   0.0000000), wk =   0.0012500
        k(  547) = (   0.3250000  -0.3500000   0.0000000), wk =   0.0012500
        k(  548) = (   0.3250000  -0.3250000   0.0000000), wk =   0.0012500
        k(  549) = (   0.3250000  -0.3000000   0.0000000), wk =   0.0012500
        k(  550) = (   0.3250000  -0.2750000   0.0000000), wk =   0.0012500
        k(  551) = (   0.3250000  -0.2500000   0.0000000), wk =   0.0012500
        k(  552) = (   0.3250000  -0.2250000   0.0000000), wk =   0.0012500
        k(  553) = (   0.3250000  -0.2000000   0.0000000), wk =   0.0012500
        k(  554) = (   0.3250000  -0.1750000   0.0000000), wk =   0.0012500
        k(  555) = (   0.3250000  -0.1500000   0.0000000), wk =   0.0012500
        k(  556) = (   0.3250000  -0.1250000   0.0000000), wk =   0.0012500
        k(  557) = (   0.3250000  -0.1000000   0.0000000), wk =   0.0012500
        k(  558) = (   0.3250000  -0.0750000   0.0000000), wk =   0.0012500
        k(  559) = (   0.3250000  -0.0500000   0.0000000), wk =   0.0012500
        k(  560) = (   0.3250000  -0.0250000   0.0000000), wk =   0.0012500
        k(  561) = (   0.3500000   0.0000000   0.0000000), wk =   0.0012500
        k(  562) = (   0.3500000   0.0250000   0.0000000), wk =   0.0012500
        k(  563) = (   0.3500000   0.0500000   0.0000000), wk =   0.0012500
        k(  564) = (   0.3500000   0.0750000   0.0000000), wk =   0.0012500
        k(  565) = (   0.3500000   0.1000000   0.0000000), wk =   0.0012500
        k(  566) = (   0.3500000   0.1250000   0.0000000), wk =   0.0012500
        k(  567) = (   0.3500000   0.1500000   0.0000000), wk =   0.0012500
        k(  568) = (   0.3500000   0.1750000   0.0000000), wk =   0.0012500
        k(  569) = (   0.3500000   0.2000000   0.0000000), wk =   0.0012500
        k(  570) = (   0.3500000   0.2250000   0.0000000), wk =   0.0012500
        k(  571) = (   0.3500000   0.2500000   0.0000000), wk =   0.0012500
        k(  572) = (   0.3500000   0.2750000   0.0000000), wk =   0.0012500
        k(  573) = (   0.3500000   0.3000000   0.0000000), wk =   0.0012500
        k(  574) = (   0.3500000   0.3250000   0.0000000), wk =   0.0012500
        k(  575) = (   0.3500000   0.3500000   0.0000000), wk =   0.0012500
        k(  576) = (   0.3500000   0.3750000   0.0000000), wk =   0.0012500
        k(  577) = (   0.3500000   0.4000000   0.0000000), wk =   0.0012500
        k(  578) = (   0.3500000   0.4250000   0.0000000), wk =   0.0012500
        k(  579) = (   0.3500000   0.4500000   0.0000000), wk =   0.0012500
        k(  580) = (   0.3500000   0.4750000   0.0000000), wk =   0.0012500
        k(  581) = (   0.3500000  -0.5000000   0.0000000), wk =   0.0012500
        k(  582) = (   0.3500000  -0.4750000   0.0000000), wk =   0.0012500
        k(  583) = (   0.3500000  -0.4500000   0.0000000), wk =   0.0012500
        k(  584) = (   0.3500000  -0.4250000   0.0000000), wk =   0.0012500
        k(  585) = (   0.3500000  -0.4000000   0.0000000), wk =   0.0012500
        k(  586) = (   0.3500000  -0.3750000   0.0000000), wk =   0.0012500
        k(  587) = (   0.3500000  -0.3500000   0.0000000), wk =   0.0012500
        k(  588) = (   0.3500000  -0.3250000   0.0000000), wk =   0.0012500
        k(  589) = (   0.3500000  -0.3000000   0.0000000), wk =   0.0012500
        k(  590) = (   0.3500000  -0.2750000   0.0000000), wk =   0.0012500
        k(  591) = (   0.3500000  -0.2500000   0.0000000), wk =   0.0012500
        k(  592) = (   0.3500000  -0.2250000   0.0000000), wk =   0.0012500
        k(  593) = (   0.3500000  -0.2000000   0.0000000), wk =   0.0012500
        k(  594) = (   0.3500000  -0.1750000   0.0000000), wk =   0.0012500
        k(  595) = (   0.3500000  -0.1500000   0.0000000), wk =   0.0012500
        k(  596) = (   0.3500000  -0.1250000   0.0000000), wk =   0.0012500
        k(  597) = (   0.3500000  -0.1000000   0.0000000), wk =   0.0012500
        k(  598) = (   0.3500000  -0.0750000   0.0000000), wk =   0.0012500
        k(  599) = (   0.3500000  -0.0500000   0.0000000), wk =   0.0012500
        k(  600) = (   0.3500000  -0.0250000   0.0000000), wk =   0.0012500
        k(  601) = (   0.3750000   0.0000000   0.0000000), wk =   0.0012500
        k(  602) = (   0.3750000   0.0250000   0.0000000), wk =   0.0012500
        k(  603) = (   0.3750000   0.0500000   0.0000000), wk =   0.0012500
        k(  604) = (   0.3750000   0.0750000   0.0000000), wk =   0.0012500
        k(  605) = (   0.3750000   0.1000000   0.0000000), wk =   0.0012500
        k(  606) = (   0.3750000   0.1250000   0.0000000), wk =   0.0012500
        k(  607) = (   0.3750000   0.1500000   0.0000000), wk =   0.0012500
        k(  608) = (   0.3750000   0.1750000   0.0000000), wk =   0.0012500
        k(  609) = (   0.3750000   0.2000000   0.0000000), wk =   0.0012500
        k(  610) = (   0.3750000   0.2250000   0.0000000), wk =   0.0012500
        k(  611) = (   0.3750000   0.2500000   0.0000000), wk =   0.0012500
        k(  612) = (   0.3750000   0.2750000   0.0000000), wk =   0.0012500
        k(  613) = (   0.3750000   0.3000000   0.0000000), wk =   0.0012500
        k(  614) = (   0.3750000   0.3250000   0.0000000), wk =   0.0012500
        k(  615) = (   0.3750000   0.3500000   0.0000000), wk =   0.0012500
        k(  616) = (   0.3750000   0.3750000   0.0000000), wk =   0.0012500
        k(  617) = (   0.3750000   0.4000000   0.0000000), wk =   0.0012500
        k(  618) = (   0.3750000   0.4250000   0.0000000), wk =   0.0012500
        k(  619) = (   0.3750000   0.4500000   0.0000000), wk =   0.0012500
        k(  620) = (   0.3750000   0.4750000   0.0000000), wk =   0.0012500
        k(  621) = (   0.3750000  -0.5000000   0.0000000), wk =   0.0012500
        k(  622) = (   0.3750000  -0.4750000   0.0000000), wk =   0.0012500
        k(  623) = (   0.3750000  -0.4500000   0.0000000), wk =   0.0012500
        k(  624) = (   0.3750000  -0.4250000   0.0000000), wk =   0.0012500
        k(  625) = (   0.3750000  -0.4000000   0.0000000), wk =   0.0012500
        k(  626) = (   0.3750000  -0.3750000   0.0000000), wk =   0.0012500
        k(  627) = (   0.3750000  -0.3500000   0.0000000), wk =   0.0012500
        k(  628) = (   0.3750000  -0.3250000   0.0000000), wk =   0.0012500
        k(  629) = (   0.3750000  -0.3000000   0.0000000), wk =   0.0012500
        k(  630) = (   0.3750000  -0.2750000   0.0000000), wk =   0.0012500
        k(  631) = (   0.3750000  -0.2500000   0.0000000), wk =   0.0012500
        k(  632) = (   0.3750000  -0.2250000   0.0000000), wk =   0.0012500
        k(  633) = (   0.3750000  -0.2000000   0.0000000), wk =   0.0012500
        k(  634) = (   0.3750000  -0.1750000   0.0000000), wk =   0.0012500
        k(  635) = (   0.3750000  -0.1500000   0.0000000), wk =   0.0012500
        k(  636) = (   0.3750000  -0.1250000   0.0000000), wk =   0.0012500
        k(  637) = (   0.3750000  -0.1000000   0.0000000), wk =   0.0012500
        k(  638) = (   0.3750000  -0.0750000   0.0000000), wk =   0.0012500
        k(  639) = (   0.3750000  -0.0500000   0.0000000), wk =   0.0012500
        k(  640) = (   0.3750000  -0.0250000   0.0000000), wk =   0.0012500
        k(  641) = (   0.4000000   0.0000000   0.0000000), wk =   0.0012500
        k(  642) = (   0.4000000   0.0250000   0.0000000), wk =   0.0012500
        k(  643) = (   0.4000000   0.0500000   0.0000000), wk =   0.0012500
        k(  644) = (   0.4000000   0.0750000   0.0000000), wk =   0.0012500
        k(  645) = (   0.4000000   0.1000000   0.0000000), wk =   0.0012500
        k(  646) = (   0.4000000   0.1250000   0.0000000), wk =   0.0012500
        k(  647) = (   0.4000000   0.1500000   0.0000000), wk =   0.0012500
        k(  648) = (   0.4000000   0.1750000   0.0000000), wk =   0.0012500
        k(  649) = (   0.4000000   0.2000000   0.0000000), wk =   0.0012500
        k(  650) = (   0.4000000   0.2250000   0.0000000), wk =   0.0012500
        k(  651) = (   0.4000000   0.2500000   0.0000000), wk =   0.0012500
        k(  652) = (   0.4000000   0.2750000   0.0000000), wk =   0.0012500
        k(  653) = (   0.4000000   0.3000000   0.0000000), wk =   0.0012500
        k(  654) = (   0.4000000   0.3250000   0.0000000), wk =   0.0012500
        k(  655) = (   0.4000000   0.3500000   0.0000000), wk =   0.0012500
        k(  656) = (   0.4000000   0.3750000   0.0000000), wk =   0.0012500
        k(  657) = (   0.4000000   0.4000000   0.0000000), wk =   0.0012500
        k(  658) = (   0.4000000   0.4250000   0.0000000), wk =   0.0012500
        k(  659) = (   0.4000000   0.4500000   0.0000000), wk =   0.0012500
        k(  660) = (   0.4000000   0.4750000   0.0000000), wk =   0.0012500
        k(  661) = (   0.4000000  -0.5000000   0.0000000), wk =   0.0012500
        k(  662) = (   0.4000000  -0.4750000   0.0000000), wk =   0.0012500
        k(  663) = (   0.4000000  -0.4500000   0.0000000), wk =   0.0012500
        k(  664) = (   0.4000000  -0.4250000   0.0000000), wk =   0.0012500
        k(  665) = (   0.4000000  -0.4000000   0.0000000), wk =   0.0012500
        k(  666) = (   0.4000000  -0.3750000   0.0000000), wk =   0.0012500
        k(  667) = (   0.4000000  -0.3500000   0.0000000), wk =   0.0012500
        k(  668) = (   0.4000000  -0.3250000   0.0000000), wk =   0.0012500
        k(  669) = (   0.4000000  -0.3000000   0.0000000), wk =   0.0012500
        k(  670) = (   0.4000000  -0.2750000   0.0000000), wk =   0.0012500
        k(  671) = (   0.4000000  -0.2500000   0.0000000), wk =   0.0012500
        k(  672) = (   0.4000000  -0.2250000   0.0000000), wk =   0.0012500
        k(  673) = (   0.4000000  -0.2000000   0.0000000), wk =   0.0012500
        k(  674) = (   0.4000000  -0.1750000   0.0000000), wk =   0.0012500
        k(  675) = (   0.4000000  -0.1500000   0.0000000), wk =   0.0012500
        k(  676) = (   0.4000000  -0.1250000   0.0000000), wk =   0.0012500
        k(  677) = (   0.4000000  -0.1000000   0.0000000), wk =   0.0012500
        k(  678) = (   0.4000000  -0.0750000   0.0000000), wk =   0.0012500
        k(  679) = (   0.4000000  -0.0500000   0.0000000), wk =   0.0012500
        k(  680) = (   0.4000000  -0.0250000   0.0000000), wk =   0.0012500
        k(  681) = (   0.4250000   0.0000000   0.0000000), wk =   0.0012500
        k(  682) = (   0.4250000   0.0250000   0.0000000), wk =   0.0012500
        k(  683) = (   0.4250000   0.0500000   0.0000000), wk =   0.0012500
        k(  684) = (   0.4250000   0.0750000   0.0000000), wk =   0.0012500
        k(  685) = (   0.4250000   0.1000000   0.0000000), wk =   0.0012500
        k(  686) = (   0.4250000   0.1250000   0.0000000), wk =   0.0012500
        k(  687) = (   0.4250000   0.1500000   0.0000000), wk =   0.0012500
        k(  688) = (   0.4250000   0.1750000   0.0000000), wk =   0.0012500
        k(  689) = (   0.4250000   0.2000000   0.0000000), wk =   0.0012500
        k(  690) = (   0.4250000   0.2250000   0.0000000), wk =   0.0012500
        k(  691) = (   0.4250000   0.2500000   0.0000000), wk =   0.0012500
        k(  692) = (   0.4250000   0.2750000   0.0000000), wk =   0.0012500
        k(  693) = (   0.4250000   0.3000000   0.0000000), wk =   0.0012500
        k(  694) = (   0.4250000   0.3250000   0.0000000), wk =   0.0012500
        k(  695) = (   0.4250000   0.3500000   0.0000000), wk =   0.0012500
        k(  696) = (   0.4250000   0.3750000   0.0000000), wk =   0.0012500
        k(  697) = (   0.4250000   0.4000000   0.0000000), wk =   0.0012500
        k(  698) = (   0.4250000   0.4250000   0.0000000), wk =   0.0012500
        k(  699) = (   0.4250000   0.4500000   0.0000000), wk =   0.0012500
        k(  700) = (   0.4250000   0.4750000   0.0000000), wk =   0.0012500
        k(  701) = (   0.4250000  -0.5000000   0.0000000), wk =   0.0012500
        k(  702) = (   0.4250000  -0.4750000   0.0000000), wk =   0.0012500
        k(  703) = (   0.4250000  -0.4500000   0.0000000), wk =   0.0012500
        k(  704) = (   0.4250000  -0.4250000   0.0000000), wk =   0.0012500
        k(  705) = (   0.4250000  -0.4000000   0.0000000), wk =   0.0012500
        k(  706) = (   0.4250000  -0.3750000   0.0000000), wk =   0.0012500
        k(  707) = (   0.4250000  -0.3500000   0.0000000), wk =   0.0012500
        k(  708) = (   0.4250000  -0.3250000   0.0000000), wk =   0.0012500
        k(  709) = (   0.4250000  -0.3000000   0.0000000), wk =   0.0012500
        k(  710) = (   0.4250000  -0.2750000   0.0000000), wk =   0.0012500
        k(  711) = (   0.4250000  -0.2500000   0.0000000), wk =   0.0012500
        k(  712) = (   0.4250000  -0.2250000   0.0000000), wk =   0.0012500
        k(  713) = (   0.4250000  -0.2000000   0.0000000), wk =   0.0012500
        k(  714) = (   0.4250000  -0.1750000   0.0000000), wk =   0.0012500
        k(  715) = (   0.4250000  -0.1500000   0.0000000), wk =   0.0012500
        k(  716) = (   0.4250000  -0.1250000   0.0000000), wk =   0.0012500
        k(  717) = (   0.4250000  -0.1000000   0.0000000), wk =   0.0012500
        k(  718) = (   0.4250000  -0.0750000   0.0000000), wk =   0.0012500
        k(  719) = (   0.4250000  -0.0500000   0.0000000), wk =   0.0012500
        k(  720) = (   0.4250000  -0.0250000   0.0000000), wk =   0.0012500
        k(  721) = (   0.4500000   0.0000000   0.0000000), wk =   0.0012500
        k(  722) = (   0.4500000   0.0250000   0.0000000), wk =   0.0012500
        k(  723) = (   0.4500000   0.0500000   0.0000000), wk =   0.0012500
        k(  724) = (   0.4500000   0.0750000   0.0000000), wk =   0.0012500
        k(  725) = (   0.4500000   0.1000000   0.0000000), wk =   0.0012500
        k(  726) = (   0.4500000   0.1250000   0.0000000), wk =   0.0012500
        k(  727) = (   0.4500000   0.1500000   0.0000000), wk =   0.0012500
        k(  728) = (   0.4500000   0.1750000   0.0000000), wk =   0.0012500
        k(  729) = (   0.4500000   0.2000000   0.0000000), wk =   0.0012500
        k(  730) = (   0.4500000   0.2250000   0.0000000), wk =   0.0012500
        k(  731) = (   0.4500000   0.2500000   0.0000000), wk =   0.0012500
        k(  732) = (   0.4500000   0.2750000   0.0000000), wk =   0.0012500
        k(  733) = (   0.4500000   0.3000000   0.0000000), wk =   0.0012500
        k(  734) = (   0.4500000   0.3250000   0.0000000), wk =   0.0012500
        k(  735) = (   0.4500000   0.3500000   0.0000000), wk =   0.0012500
        k(  736) = (   0.4500000   0.3750000   0.0000000), wk =   0.0012500
        k(  737) = (   0.4500000   0.4000000   0.0000000), wk =   0.0012500
        k(  738) = (   0.4500000   0.4250000   0.0000000), wk =   0.0012500
        k(  739) = (   0.4500000   0.4500000   0.0000000), wk =   0.0012500
        k(  740) = (   0.4500000   0.4750000   0.0000000), wk =   0.0012500
        k(  741) = (   0.4500000  -0.5000000   0.0000000), wk =   0.0012500
        k(  742) = (   0.4500000  -0.4750000   0.0000000), wk =   0.0012500
        k(  743) = (   0.4500000  -0.4500000   0.0000000), wk =   0.0012500
        k(  744) = (   0.4500000  -0.4250000   0.0000000), wk =   0.0012500
        k(  745) = (   0.4500000  -0.4000000   0.0000000), wk =   0.0012500
        k(  746) = (   0.4500000  -0.3750000   0.0000000), wk =   0.0012500
        k(  747) = (   0.4500000  -0.3500000   0.0000000), wk =   0.0012500
        k(  748) = (   0.4500000  -0.3250000   0.0000000), wk =   0.0012500
        k(  749) = (   0.4500000  -0.3000000   0.0000000), wk =   0.0012500
        k(  750) = (   0.4500000  -0.2750000   0.0000000), wk =   0.0012500
        k(  751) = (   0.4500000  -0.2500000   0.0000000), wk =   0.0012500
        k(  752) = (   0.4500000  -0.2250000   0.0000000), wk =   0.0012500
        k(  753) = (   0.4500000  -0.2000000   0.0000000), wk =   0.0012500
        k(  754) = (   0.4500000  -0.1750000   0.0000000), wk =   0.0012500
        k(  755) = (   0.4500000  -0.1500000   0.0000000), wk =   0.0012500
        k(  756) = (   0.4500000  -0.1250000   0.0000000), wk =   0.0012500
        k(  757) = (   0.4500000  -0.1000000   0.0000000), wk =   0.0012500
        k(  758) = (   0.4500000  -0.0750000   0.0000000), wk =   0.0012500
        k(  759) = (   0.4500000  -0.0500000   0.0000000), wk =   0.0012500
        k(  760) = (   0.4500000  -0.0250000   0.0000000), wk =   0.0012500
        k(  761) = (   0.4750000   0.0000000   0.0000000), wk =   0.0012500
        k(  762) = (   0.4750000   0.0250000   0.0000000), wk =   0.0012500
        k(  763) = (   0.4750000   0.0500000   0.0000000), wk =   0.0012500
        k(  764) = (   0.4750000   0.0750000   0.0000000), wk =   0.0012500
        k(  765) = (   0.4750000   0.1000000   0.0000000), wk =   0.0012500
        k(  766) = (   0.4750000   0.1250000   0.0000000), wk =   0.0012500
        k(  767) = (   0.4750000   0.1500000   0.0000000), wk =   0.0012500
        k(  768) = (   0.4750000   0.1750000   0.0000000), wk =   0.0012500
        k(  769) = (   0.4750000   0.2000000   0.0000000), wk =   0.0012500
        k(  770) = (   0.4750000   0.2250000   0.0000000), wk =   0.0012500
        k(  771) = (   0.4750000   0.2500000   0.0000000), wk =   0.0012500
        k(  772) = (   0.4750000   0.2750000   0.0000000), wk =   0.0012500
        k(  773) = (   0.4750000   0.3000000   0.0000000), wk =   0.0012500
        k(  774) = (   0.4750000   0.3250000   0.0000000), wk =   0.0012500
        k(  775) = (   0.4750000   0.3500000   0.0000000), wk =   0.0012500
        k(  776) = (   0.4750000   0.3750000   0.0000000), wk =   0.0012500
        k(  777) = (   0.4750000   0.4000000   0.0000000), wk =   0.0012500
        k(  778) = (   0.4750000   0.4250000   0.0000000), wk =   0.0012500
        k(  779) = (   0.4750000   0.4500000   0.0000000), wk =   0.0012500
        k(  780) = (   0.4750000   0.4750000   0.0000000), wk =   0.0012500
        k(  781) = (   0.4750000  -0.5000000   0.0000000), wk =   0.0012500
        k(  782) = (   0.4750000  -0.4750000   0.0000000), wk =   0.0012500
        k(  783) = (   0.4750000  -0.4500000   0.0000000), wk =   0.0012500
        k(  784) = (   0.4750000  -0.4250000   0.0000000), wk =   0.0012500
        k(  785) = (   0.4750000  -0.4000000   0.0000000), wk =   0.0012500
        k(  786) = (   0.4750000  -0.3750000   0.0000000), wk =   0.0012500
        k(  787) = (   0.4750000  -0.3500000   0.0000000), wk =   0.0012500
        k(  788) = (   0.4750000  -0.3250000   0.0000000), wk =   0.0012500
        k(  789) = (   0.4750000  -0.3000000   0.0000000), wk =   0.0012500
        k(  790) = (   0.4750000  -0.2750000   0.0000000), wk =   0.0012500
        k(  791) = (   0.4750000  -0.2500000   0.0000000), wk =   0.0012500
        k(  792) = (   0.4750000  -0.2250000   0.0000000), wk =   0.0012500
        k(  793) = (   0.4750000  -0.2000000   0.0000000), wk =   0.0012500
        k(  794) = (   0.4750000  -0.1750000   0.0000000), wk =   0.0012500
        k(  795) = (   0.4750000  -0.1500000   0.0000000), wk =   0.0012500
        k(  796) = (   0.4750000  -0.1250000   0.0000000), wk =   0.0012500
        k(  797) = (   0.4750000  -0.1000000   0.0000000), wk =   0.0012500
        k(  798) = (   0.4750000  -0.0750000   0.0000000), wk =   0.0012500
        k(  799) = (   0.4750000  -0.0500000   0.0000000), wk =   0.0012500
        k(  800) = (   0.4750000  -0.0250000   0.0000000), wk =   0.0012500
        k(  801) = (  -0.5000000   0.0000000   0.0000000), wk =   0.0012500
        k(  802) = (  -0.5000000   0.0250000   0.0000000), wk =   0.0012500
        k(  803) = (  -0.5000000   0.0500000   0.0000000), wk =   0.0012500
        k(  804) = (  -0.5000000   0.0750000   0.0000000), wk =   0.0012500
        k(  805) = (  -0.5000000   0.1000000   0.0000000), wk =   0.0012500
        k(  806) = (  -0.5000000   0.1250000   0.0000000), wk =   0.0012500
        k(  807) = (  -0.5000000   0.1500000   0.0000000), wk =   0.0012500
        k(  808) = (  -0.5000000   0.1750000   0.0000000), wk =   0.0012500
        k(  809) = (  -0.5000000   0.2000000   0.0000000), wk =   0.0012500
        k(  810) = (  -0.5000000   0.2250000   0.0000000), wk =   0.0012500
        k(  811) = (  -0.5000000   0.2500000   0.0000000), wk =   0.0012500
        k(  812) = (  -0.5000000   0.2750000   0.0000000), wk =   0.0012500
        k(  813) = (  -0.5000000   0.3000000   0.0000000), wk =   0.0012500
        k(  814) = (  -0.5000000   0.3250000   0.0000000), wk =   0.0012500
        k(  815) = (  -0.5000000   0.3500000   0.0000000), wk =   0.0012500
        k(  816) = (  -0.5000000   0.3750000   0.0000000), wk =   0.0012500
        k(  817) = (  -0.5000000   0.4000000   0.0000000), wk =   0.0012500
        k(  818) = (  -0.5000000   0.4250000   0.0000000), wk =   0.0012500
        k(  819) = (  -0.5000000   0.4500000   0.0000000), wk =   0.0012500
        k(  820) = (  -0.5000000   0.4750000   0.0000000), wk =   0.0012500
        k(  821) = (  -0.5000000  -0.5000000   0.0000000), wk =   0.0012500
        k(  822) = (  -0.5000000  -0.4750000   0.0000000), wk =   0.0012500
        k(  823) = (  -0.5000000  -0.4500000   0.0000000), wk =   0.0012500
        k(  824) = (  -0.5000000  -0.4250000   0.0000000), wk =   0.0012500
        k(  825) = (  -0.5000000  -0.4000000   0.0000000), wk =   0.0012500
        k(  826) = (  -0.5000000  -0.3750000   0.0000000), wk =   0.0012500
        k(  827) = (  -0.5000000  -0.3500000   0.0000000), wk =   0.0012500
        k(  828) = (  -0.5000000  -0.3250000   0.0000000), wk =   0.0012500
        k(  829) = (  -0.5000000  -0.3000000   0.0000000), wk =   0.0012500
        k(  830) = (  -0.5000000  -0.2750000   0.0000000), wk =   0.0012500
        k(  831) = (  -0.5000000  -0.2500000   0.0000000), wk =   0.0012500
        k(  832) = (  -0.5000000  -0.2250000   0.0000000), wk =   0.0012500
        k(  833) = (  -0.5000000  -0.2000000   0.0000000), wk =   0.0012500
        k(  834) = (  -0.5000000  -0.1750000   0.0000000), wk =   0.0012500
        k(  835) = (  -0.5000000  -0.1500000   0.0000000), wk =   0.0012500
        k(  836) = (  -0.5000000  -0.1250000   0.0000000), wk =   0.0012500
        k(  837) = (  -0.5000000  -0.1000000   0.0000000), wk =   0.0012500
        k(  838) = (  -0.5000000  -0.0750000   0.0000000), wk =   0.0012500
        k(  839) = (  -0.5000000  -0.0500000   0.0000000), wk =   0.0012500
        k(  840) = (  -0.5000000  -0.0250000   0.0000000), wk =   0.0012500
        k(  841) = (  -0.4750000   0.0000000   0.0000000), wk =   0.0012500
        k(  842) = (  -0.4750000   0.0250000   0.0000000), wk =   0.0012500
        k(  843) = (  -0.4750000   0.0500000   0.0000000), wk =   0.0012500
        k(  844) = (  -0.4750000   0.0750000   0.0000000), wk =   0.0012500
        k(  845) = (  -0.4750000   0.1000000   0.0000000), wk =   0.0012500
        k(  846) = (  -0.4750000   0.1250000   0.0000000), wk =   0.0012500
        k(  847) = (  -0.4750000   0.1500000   0.0000000), wk =   0.0012500
        k(  848) = (  -0.4750000   0.1750000   0.0000000), wk =   0.0012500
        k(  849) = (  -0.4750000   0.2000000   0.0000000), wk =   0.0012500
        k(  850) = (  -0.4750000   0.2250000   0.0000000), wk =   0.0012500
        k(  851) = (  -0.4750000   0.2500000   0.0000000), wk =   0.0012500
        k(  852) = (  -0.4750000   0.2750000   0.0000000), wk =   0.0012500
        k(  853) = (  -0.4750000   0.3000000   0.0000000), wk =   0.0012500
        k(  854) = (  -0.4750000   0.3250000   0.0000000), wk =   0.0012500
        k(  855) = (  -0.4750000   0.3500000   0.0000000), wk =   0.0012500
        k(  856) = (  -0.4750000   0.3750000   0.0000000), wk =   0.0012500
        k(  857) = (  -0.4750000   0.4000000   0.0000000), wk =   0.0012500
        k(  858) = (  -0.4750000   0.4250000   0.0000000), wk =   0.0012500
        k(  859) = (  -0.4750000   0.4500000   0.0000000), wk =   0.0012500
        k(  860) = (  -0.4750000   0.4750000   0.0000000), wk =   0.0012500
        k(  861) = (  -0.4750000  -0.5000000   0.0000000), wk =   0.0012500
        k(  862) = (  -0.4750000  -0.4750000   0.0000000), wk =   0.0012500
        k(  863) = (  -0.4750000  -0.4500000   0.0000000), wk =   0.0012500
        k(  864) = (  -0.4750000  -0.4250000   0.0000000), wk =   0.0012500
        k(  865) = (  -0.4750000  -0.4000000   0.0000000), wk =   0.0012500
        k(  866) = (  -0.4750000  -0.3750000   0.0000000), wk =   0.0012500
        k(  867) = (  -0.4750000  -0.3500000   0.0000000), wk =   0.0012500
        k(  868) = (  -0.4750000  -0.3250000   0.0000000), wk =   0.0012500
        k(  869) = (  -0.4750000  -0.3000000   0.0000000), wk =   0.0012500
        k(  870) = (  -0.4750000  -0.2750000   0.0000000), wk =   0.0012500
        k(  871) = (  -0.4750000  -0.2500000   0.0000000), wk =   0.0012500
        k(  872) = (  -0.4750000  -0.2250000   0.0000000), wk =   0.0012500
        k(  873) = (  -0.4750000  -0.2000000   0.0000000), wk =   0.0012500
        k(  874) = (  -0.4750000  -0.1750000   0.0000000), wk =   0.0012500
        k(  875) = (  -0.4750000  -0.1500000   0.0000000), wk =   0.0012500
        k(  876) = (  -0.4750000  -0.1250000   0.0000000), wk =   0.0012500
        k(  877) = (  -0.4750000  -0.1000000   0.0000000), wk =   0.0012500
        k(  878) = (  -0.4750000  -0.0750000   0.0000000), wk =   0.0012500
        k(  879) = (  -0.4750000  -0.0500000   0.0000000), wk =   0.0012500
        k(  880) = (  -0.4750000  -0.0250000   0.0000000), wk =   0.0012500
        k(  881) = (  -0.4500000   0.0000000   0.0000000), wk =   0.0012500
        k(  882) = (  -0.4500000   0.0250000   0.0000000), wk =   0.0012500
        k(  883) = (  -0.4500000   0.0500000   0.0000000), wk =   0.0012500
        k(  884) = (  -0.4500000   0.0750000   0.0000000), wk =   0.0012500
        k(  885) = (  -0.4500000   0.1000000   0.0000000), wk =   0.0012500
        k(  886) = (  -0.4500000   0.1250000   0.0000000), wk =   0.0012500
        k(  887) = (  -0.4500000   0.1500000   0.0000000), wk =   0.0012500
        k(  888) = (  -0.4500000   0.1750000   0.0000000), wk =   0.0012500
        k(  889) = (  -0.4500000   0.2000000   0.0000000), wk =   0.0012500
        k(  890) = (  -0.4500000   0.2250000   0.0000000), wk =   0.0012500
        k(  891) = (  -0.4500000   0.2500000   0.0000000), wk =   0.0012500
        k(  892) = (  -0.4500000   0.2750000   0.0000000), wk =   0.0012500
        k(  893) = (  -0.4500000   0.3000000   0.0000000), wk =   0.0012500
        k(  894) = (  -0.4500000   0.3250000   0.0000000), wk =   0.0012500
        k(  895) = (  -0.4500000   0.3500000   0.0000000), wk =   0.0012500
        k(  896) = (  -0.4500000   0.3750000   0.0000000), wk =   0.0012500
        k(  897) = (  -0.4500000   0.4000000   0.0000000), wk =   0.0012500
        k(  898) = (  -0.4500000   0.4250000   0.0000000), wk =   0.0012500
        k(  899) = (  -0.4500000   0.4500000   0.0000000), wk =   0.0012500
        k(  900) = (  -0.4500000   0.4750000   0.0000000), wk =   0.0012500
        k(  901) = (  -0.4500000  -0.5000000   0.0000000), wk =   0.0012500
        k(  902) = (  -0.4500000  -0.4750000   0.0000000), wk =   0.0012500
        k(  903) = (  -0.4500000  -0.4500000   0.0000000), wk =   0.0012500
        k(  904) = (  -0.4500000  -0.4250000   0.0000000), wk =   0.0012500
        k(  905) = (  -0.4500000  -0.4000000   0.0000000), wk =   0.0012500
        k(  906) = (  -0.4500000  -0.3750000   0.0000000), wk =   0.0012500
        k(  907) = (  -0.4500000  -0.3500000   0.0000000), wk =   0.0012500
        k(  908) = (  -0.4500000  -0.3250000   0.0000000), wk =   0.0012500
        k(  909) = (  -0.4500000  -0.3000000   0.0000000), wk =   0.0012500
        k(  910) = (  -0.4500000  -0.2750000   0.0000000), wk =   0.0012500
        k(  911) = (  -0.4500000  -0.2500000   0.0000000), wk =   0.0012500
        k(  912) = (  -0.4500000  -0.2250000   0.0000000), wk =   0.0012500
        k(  913) = (  -0.4500000  -0.2000000   0.0000000), wk =   0.0012500
        k(  914) = (  -0.4500000  -0.1750000   0.0000000), wk =   0.0012500
        k(  915) = (  -0.4500000  -0.1500000   0.0000000), wk =   0.0012500
        k(  916) = (  -0.4500000  -0.1250000   0.0000000), wk =   0.0012500
        k(  917) = (  -0.4500000  -0.1000000   0.0000000), wk =   0.0012500
        k(  918) = (  -0.4500000  -0.0750000   0.0000000), wk =   0.0012500
        k(  919) = (  -0.4500000  -0.0500000   0.0000000), wk =   0.0012500
        k(  920) = (  -0.4500000  -0.0250000   0.0000000), wk =   0.0012500
        k(  921) = (  -0.4250000   0.0000000   0.0000000), wk =   0.0012500
        k(  922) = (  -0.4250000   0.0250000   0.0000000), wk =   0.0012500
        k(  923) = (  -0.4250000   0.0500000   0.0000000), wk =   0.0012500
        k(  924) = (  -0.4250000   0.0750000   0.0000000), wk =   0.0012500
        k(  925) = (  -0.4250000   0.1000000   0.0000000), wk =   0.0012500
        k(  926) = (  -0.4250000   0.1250000   0.0000000), wk =   0.0012500
        k(  927) = (  -0.4250000   0.1500000   0.0000000), wk =   0.0012500
        k(  928) = (  -0.4250000   0.1750000   0.0000000), wk =   0.0012500
        k(  929) = (  -0.4250000   0.2000000   0.0000000), wk =   0.0012500
        k(  930) = (  -0.4250000   0.2250000   0.0000000), wk =   0.0012500
        k(  931) = (  -0.4250000   0.2500000   0.0000000), wk =   0.0012500
        k(  932) = (  -0.4250000   0.2750000   0.0000000), wk =   0.0012500
        k(  933) = (  -0.4250000   0.3000000   0.0000000), wk =   0.0012500
        k(  934) = (  -0.4250000   0.3250000   0.0000000), wk =   0.0012500
        k(  935) = (  -0.4250000   0.3500000   0.0000000), wk =   0.0012500
        k(  936) = (  -0.4250000   0.3750000   0.0000000), wk =   0.0012500
        k(  937) = (  -0.4250000   0.4000000   0.0000000), wk =   0.0012500
        k(  938) = (  -0.4250000   0.4250000   0.0000000), wk =   0.0012500
        k(  939) = (  -0.4250000   0.4500000   0.0000000), wk =   0.0012500
        k(  940) = (  -0.4250000   0.4750000   0.0000000), wk =   0.0012500
        k(  941) = (  -0.4250000  -0.5000000   0.0000000), wk =   0.0012500
        k(  942) = (  -0.4250000  -0.4750000   0.0000000), wk =   0.0012500
        k(  943) = (  -0.4250000  -0.4500000   0.0000000), wk =   0.0012500
        k(  944) = (  -0.4250000  -0.4250000   0.0000000), wk =   0.0012500
        k(  945) = (  -0.4250000  -0.4000000   0.0000000), wk =   0.0012500
        k(  946) = (  -0.4250000  -0.3750000   0.0000000), wk =   0.0012500
        k(  947) = (  -0.4250000  -0.3500000   0.0000000), wk =   0.0012500
        k(  948) = (  -0.4250000  -0.3250000   0.0000000), wk =   0.0012500
        k(  949) = (  -0.4250000  -0.3000000   0.0000000), wk =   0.0012500
        k(  950) = (  -0.4250000  -0.2750000   0.0000000), wk =   0.0012500
        k(  951) = (  -0.4250000  -0.2500000   0.0000000), wk =   0.0012500
        k(  952) = (  -0.4250000  -0.2250000   0.0000000), wk =   0.0012500
        k(  953) = (  -0.4250000  -0.2000000   0.0000000), wk =   0.0012500
        k(  954) = (  -0.4250000  -0.1750000   0.0000000), wk =   0.0012500
        k(  955) = (  -0.4250000  -0.1500000   0.0000000), wk =   0.0012500
        k(  956) = (  -0.4250000  -0.1250000   0.0000000), wk =   0.0012500
        k(  957) = (  -0.4250000  -0.1000000   0.0000000), wk =   0.0012500
        k(  958) = (  -0.4250000  -0.0750000   0.0000000), wk =   0.0012500
        k(  959) = (  -0.4250000  -0.0500000   0.0000000), wk =   0.0012500
        k(  960) = (  -0.4250000  -0.0250000   0.0000000), wk =   0.0012500
        k(  961) = (  -0.4000000   0.0000000   0.0000000), wk =   0.0012500
        k(  962) = (  -0.4000000   0.0250000   0.0000000), wk =   0.0012500
        k(  963) = (  -0.4000000   0.0500000   0.0000000), wk =   0.0012500
        k(  964) = (  -0.4000000   0.0750000   0.0000000), wk =   0.0012500
        k(  965) = (  -0.4000000   0.1000000   0.0000000), wk =   0.0012500
        k(  966) = (  -0.4000000   0.1250000   0.0000000), wk =   0.0012500
        k(  967) = (  -0.4000000   0.1500000   0.0000000), wk =   0.0012500
        k(  968) = (  -0.4000000   0.1750000   0.0000000), wk =   0.0012500
        k(  969) = (  -0.4000000   0.2000000   0.0000000), wk =   0.0012500
        k(  970) = (  -0.4000000   0.2250000   0.0000000), wk =   0.0012500
        k(  971) = (  -0.4000000   0.2500000   0.0000000), wk =   0.0012500
        k(  972) = (  -0.4000000   0.2750000   0.0000000), wk =   0.0012500
        k(  973) = (  -0.4000000   0.3000000   0.0000000), wk =   0.0012500
        k(  974) = (  -0.4000000   0.3250000   0.0000000), wk =   0.0012500
        k(  975) = (  -0.4000000   0.3500000   0.0000000), wk =   0.0012500
        k(  976) = (  -0.4000000   0.3750000   0.0000000), wk =   0.0012500
        k(  977) = (  -0.4000000   0.4000000   0.0000000), wk =   0.0012500
        k(  978) = (  -0.4000000   0.4250000   0.0000000), wk =   0.0012500
[...]
     7.4791   7.7151   8.0979   8.2572   9.1611   9.7723  10.4503  11.0895
    11.3601  11.5881  11.9641  12.5974  12.7930  12.8733  13.4289  13.4890

     occupation numbers 
     1.0000   1.0000   1.0000   1.0000   1.0000   1.0000   1.0000   1.0000
     1.0000   1.0000   1.0000   1.0000   1.0000   1.0000   0.9998   0.0000
     0.0000   0.0000   0.0000   0.0000   0.0000   0.0000   0.0000   0.0000
     0.0000   0.0000   0.0000   0.0000   0.0000   0.0000   0.0000   0.0000
     0.0000   0.0000   0.0000   0.0000   0.0000   0.0000   0.0000   0.0000

          k =-0.0250-0.3250 0.0000 (  9323 PWs)   bands (ev):

   -37.1767 -37.1672 -37.1207 -37.1204 -37.1119 -22.3990 -22.3516 -22.3483
   -22.2932 -22.2673 -12.0942  -8.0206  -2.8590  -2.5139  -1.1910  -0.0066
     1.2591   2.0604   3.1637   4.6259   4.7964   5.8366   6.2607   6.4429
     7.7026   7.7132   8.1706   8.2215   9.0299   9.9334  10.6821  10.9562
    11.5806  11.7238  11.9498  12.5309  12.5660  12.8752  13.1391  13.2179

     occupation numbers 
     1.0000   1.0000   1.0000   1.0000   1.0000   1.0000   1.0000   1.0000
     1.0000   1.0000   1.0000   1.0000   1.0000   1.0000   1.0000   0.0000
     0.0000   0.0000   0.0000   0.0000   0.0000   0.0000   0.0000   0.0000
     0.0000   0.0000   0.0000   0.0000   0.0000   0.0000   0.0000   0.0000
     0.0000   0.0000   0.0000   0.0000   0.0000   0.0000   0.0000   0.0000

          k =-0.0250-0.3000 0.0000 (  9303 PWs)   bands (ev):

   -37.1767 -37.1673 -37.1206 -37.1204 -37.1119 -22.3996 -22.3513 -22.3483
   -22.2922 -22.2680 -12.1629  -7.8323  -2.9596  -2.6383  -1.3764   0.1710
     1.5189   2.3127   3.0368   4.5112   4.6695   5.6976   6.2486   6.4590
     7.6347   7.9788   8.1612   8.3459   8.9095  10.1322  10.8277  10.9291
    11.6489  11.7387  12.1520  12.3268  12.3363  12.6783  12.9148  13.0346

     occupation numbers 
     1.0000   1.0000   1.0000   1.0000   1.0000   1.0000   1.0000   1.0000
     1.0000   1.0000   1.0000   1.0000   1.0000   1.0000   1.0000   0.0000
     0.0000   0.0000   0.0000   0.0000   0.0000   0.0000   0.0000   0.0000
     0.0000   0.0000   0.0000   0.0000   0.0000   0.0000   0.0000   0.0000
     0.0000   0.0000   0.0000   0.0000   0.0000   0.0000   0.0000   0.0000

          k =-0.0250-0.2750 0.0000 (  9291 PWs)   bands (ev):

   -37.1767 -37.1674 -37.1206 -37.1204 -37.1120 -22.4001 -22.3509 -22.3483
   -22.2912 -22.2689 -12.2309  -7.6315  -3.0555  -2.7568  -1.5627   0.3496
     1.7905   2.5653   2.9208   4.4053   4.5524   5.3802   6.2358   6.6837
     7.5504   8.0935   8.2558   8.5699   8.8035  10.3598  10.7065  11.1878
    11.5355  11.6379  12.0044  12.2684  12.3397  12.5355  12.7815  12.8585

     occupation numbers 
     1.0000   1.0000   1.0000   1.0000   1.0000   1.0000   1.0000   1.0000
     1.0000   1.0000   1.0000   1.0000   1.0000   1.0000   1.0000   0.0000
     0.0000   0.0000   0.0000   0.0000   0.0000   0.0000   0.0000   0.0000
     0.0000   0.0000   0.0000   0.0000   0.0000   0.0000   0.0000   0.0000
     0.0000   0.0000   0.0000   0.0000   0.0000   0.0000   0.0000   0.0000

          k =-0.0250-0.2500 0.0000 (  9285 PWs)   bands (ev):

   -37.1767 -37.1675 -37.1206 -37.1204 -37.1120 -22.4007 -22.3506 -22.3484
   -22.2901 -22.2697 -12.2965  -7.4207  -3.1455  -2.8677  -1.7498   0.5259
     2.0708   2.7882   2.8422   4.3085   4.4452   5.0483   6.2295   6.9603
     7.4652   8.0216   8.5124   8.7401   8.8254  10.5916  10.6084  11.2936
    11.4053  11.4670  11.6162  12.2876  12.3366  12.5242  12.7718  12.7885

     occupation numbers 
     1.0000   1.0000   1.0000   1.0000   1.0000   1.0000   1.0000   1.0000
     1.0000   1.0000   1.0000   1.0000   1.0000   1.0000   1.0000   0.0000
     0.0000   0.0000   0.0000   0.0000   0.0000   0.0000   0.0000   0.0000
     0.0000   0.0000   0.0000   0.0000   0.0000   0.0000   0.0000   0.0000
     0.0000   0.0000   0.0000   0.0000   0.0000   0.0000   0.0000   0.0000

          k =-0.0250-0.2250 0.0000 (  9265 PWs)   bands (ev):

   -37.1767 -37.1676 -37.1205 -37.1204 -37.1121 -22.4013 -22.3502 -22.3484
   -22.2890 -22.2705 -12.3586  -7.2029  -3.2286  -2.9699  -1.9376   0.6969
     2.3562   2.7141   3.0630   4.2213   4.3479   4.7398   6.2347   7.2578
     7.3844   7.9503   8.5561   8.9107   9.1032  10.4789  10.8344  10.9501
    11.1305  11.3726  11.7411  12.1695  12.2631  12.3232  12.8920  12.9342

     occupation numbers 
     1.0000   1.0000   1.0000   1.0000   1.0000   1.0000   1.0000   1.0000
     1.0000   1.0000   1.0000   1.0000   1.0000   1.0000   1.0000   0.0000
     0.0000   0.0000   0.0000   0.0000   0.0000   0.0000   0.0000   0.0000
     0.0000   0.0000   0.0000   0.0000   0.0000   0.0000   0.0000   0.0000
     0.0000   0.0000   0.0000   0.0000   0.0000   0.0000   0.0000   0.0000

          k =-0.0250-0.2000 0.0000 (  9272 PWs)   bands (ev):

   -37.1767 -37.1678 -37.1205 -37.1204 -37.1121 -22.4019 -22.3499 -22.3484
   -22.2879 -22.2714 -12.4161  -6.9808  -3.3042  -3.0624  -2.1259   0.8596
     2.6075   2.6658   3.2844   4.1437   4.2604   4.4741   6.2551   7.3101
     7.5678   7.8825   8.4909   9.2112   9.3985  10.3508  10.5030  10.7651
    11.1666  11.2566  11.9045  12.0250  12.1149  12.2671  12.9048  12.9913

     occupation numbers 
     1.0000   1.0000   1.0000   1.0000   1.0000   1.0000   1.0000   1.0000
     1.0000   1.0000   1.0000   1.0000   1.0000   1.0000   1.0000   0.0000
     0.0000   0.0000   0.0000   0.0000   0.0000   0.0000   0.0000   0.0000
     0.0000   0.0000   0.0000   0.0000   0.0000   0.0000   0.0000   0.0000
     0.0000   0.0000   0.0000   0.0000   0.0000   0.0000   0.0000   0.0000

          k =-0.0250-0.1750 0.0000 (  9272 PWs)   bands (ev):

   -37.1767 -37.1679 -37.1205 -37.1204 -37.1122 -22.4024 -22.3496 -22.3484
   -22.2869 -22.2721 -12.4683  -6.7579  -3.3719  -3.1445  -2.3137   1.0110
     2.5481   2.9344   3.4594   4.0759   4.1824   4.2811   6.2934   7.2431
     7.8199   7.8833   8.4296   9.5301   9.7083  10.1186  10.1425  10.4959
    11.1478  11.4516  11.5962  12.0292  12.2054  12.3145  12.8271  13.0033

     occupation numbers 
     1.0000   1.0000   1.0000   1.0000   1.0000   1.0000   1.0000   1.0000
     1.0000   1.0000   1.0000   1.0000   1.0000   1.0000   1.0000   0.0000
     0.0000   0.0000   0.0000   0.0000   0.0000   0.0000   0.0000   0.0000
     0.0000   0.0000   0.0000   0.0000   0.0000   0.0000   0.0000   0.0000
     0.0000   0.0000   0.0000   0.0000   0.0000   0.0000   0.0000   0.0000

          k =-0.0250-0.1500 0.0000 (  9274 PWs)   bands (ev):

   -37.1767 -37.1680 -37.1204 -37.1204 -37.1122 -22.4029 -22.3493 -22.3484
   -22.2859 -22.2728 -12.5146  -6.5383  -3.4311  -3.2155  -2.4996   1.1484
     2.4827   3.1987   3.5426   4.0177   4.1182   4.2123   6.3510   7.1840
     7.7639   8.1706   8.4135   9.7481   9.7984   9.8844  10.0305  10.3688
    11.0059  11.3412  11.7294  11.9556  12.1754  12.5730  12.7373  13.0089

     occupation numbers 
     1.0000   1.0000   1.0000   1.0000   1.0000   1.0000   1.0000   1.0000
     1.0000   1.0000   1.0000   1.0000   1.0000   1.0000   1.0000   0.0000
     0.0000   0.0000   0.0000   0.0000   0.0000   0.0000   0.0000   0.0000
     0.0000   0.0000   0.0000   0.0000   0.0000   0.0000   0.0000   0.0000
     0.0000   0.0000   0.0000   0.0000   0.0000   0.0000   0.0000   0.0000

          k =-0.0250-0.1250 0.0000 (  9271 PWs)   bands (ev):

   -37.1767 -37.1680 -37.1204 -37.1204 -37.1123 -22.4034 -22.3491 -22.3484
   -22.2851 -22.2734 -12.5545  -6.3269  -3.4816  -3.2745  -2.6808   1.2690
     2.4269   3.3413   3.6170   3.9692   4.0640   4.2806   6.4281   7.1326
     7.7151   8.2498   8.6225   9.3998   9.4921  10.1383  10.3503  10.3620
    10.7965  11.1898  11.8888  11.9285  12.2380  12.5979  12.7309  12.9638

     occupation numbers 
     1.0000   1.0000   1.0000   1.0000   1.0000   1.0000   1.0000   1.0000
     1.0000   1.0000   1.0000   1.0000   1.0000   1.0000   1.0000   0.0000
     0.0000   0.0000   0.0000   0.0000   0.0000   0.0000   0.0000   0.0000
     0.0000   0.0000   0.0000   0.0000   0.0000   0.0000   0.0000   0.0000
     0.0000   0.0000   0.0000   0.0000   0.0000   0.0000   0.0000   0.0000

          k =-0.0250-0.1000 0.0000 (  9272 PWs)   bands (ev):

   -37.1767 -37.1681 -37.1204 -37.1204 -37.1123 -22.4038 -22.3488 -22.3484
   -22.2844 -22.2740 -12.5876  -6.1306  -3.5233  -3.3205  -2.8530   1.3707
     2.3810   3.2806   3.8333   3.9300   4.0183   4.4040   6.5229   7.0886
     7.6741   8.2227   8.9484   9.0801   9.1932  10.1740  10.5355  10.6244
    10.6993  11.1127  11.8187  11.9732  12.3242  12.4665  12.7594  12.7795

     occupation numbers 
     1.0000   1.0000   1.0000   1.0000   1.0000   1.0000   1.0000   1.0000
     1.0000   1.0000   1.0000   1.0000   1.0000   1.0000   1.0000   0.0000
     0.0000   0.0000   0.0000   0.0000   0.0000   0.0000   0.0000   0.0000
     0.0000   0.0000   0.0000   0.0000   0.0000   0.0000   0.0000   0.0000
     0.0000   0.0000   0.0000   0.0000   0.0000   0.0000   0.0000   0.0000

          k =-0.0250-0.0750 0.0000 (  9270 PWs)   bands (ev):

   -37.1767 -37.1682 -37.1204 -37.1204 -37.1123 -22.4041 -22.3487 -22.3484
   -22.2838 -22.2744 -12.6136  -5.9581  -3.5558  -3.3517  -3.0101   1.4516
     2.3453   3.1847   3.9000   3.9821   4.0686   4.5180   6.6306   7.0509
     7.6409   8.1920   8.7987   8.9199   9.3066  10.1351  10.3586  10.8911
    11.0342  11.1060  11.6990  11.9775  12.0348  12.6975  12.6980  12.7910

     occupation numbers 
     1.0000   1.0000   1.0000   1.0000   1.0000   1.0000   1.0000   1.0000
     1.0000   1.0000   1.0000   1.0000   1.0000   1.0000   1.0000   0.0000
     0.0000   0.0000   0.0000   0.0000   0.0000   0.0000   0.0000   0.0000
     0.0000   0.0000   0.0000   0.0000   0.0000   0.0000   0.0000   0.0000
     0.0000   0.0000   0.0000   0.0000   0.0000   0.0000   0.0000   0.0000

          k =-0.0250-0.0500 0.0000 (  9272 PWs)   bands (ev):

   -37.1767 -37.1682 -37.1204 -37.1204 -37.1124 -22.4044 -22.3485 -22.3484
   -22.2834 -22.2747 -12.6323  -5.8207  -3.5791  -3.3655  -3.1446   1.5102
     2.3198   3.1057   3.8788   3.9567   4.2784   4.5918   6.7419   7.0165
     7.6159   8.1682   8.5703   8.7218   9.6299  10.1015  10.2341  10.9357
    11.2892  11.3438  11.5035  11.9072  12.0071  12.6328  12.6904  13.0224

     occupation numbers 
     1.0000   1.0000   1.0000   1.0000   1.0000   1.0000   1.0000   1.0000
     1.0000   1.0000   1.0000   1.0000   1.0000   1.0000   1.0000   0.0000
     0.0000   0.0000   0.0000   0.0000   0.0000   0.0000   0.0000   0.0000
     0.0000   0.0000   0.0000   0.0000   0.0000   0.0000   0.0000   0.0000
     0.0000   0.0000   0.0000   0.0000   0.0000   0.0000   0.0000   0.0000

          k =-0.0250-0.0250 0.0000 (  9283 PWs)   bands (ev):

   -37.1767 -37.1682 -37.1204 -37.1204 -37.1124 -22.4045 -22.3485 -22.3484
   -22.2831 -22.2749 -12.6435  -5.7308  -3.5932  -3.3577  -3.2485   1.5457
     2.3044   3.0556   3.8662   3.9414   4.4463   4.6085   6.8425   6.9797
     7.5996   8.1536   8.4162   8.5947   9.8206  10.1606  10.2183  10.8114
    11.1644  11.5648  11.6835  11.9224  12.1232  12.5008  12.5981  12.8449

     occupation numbers 
     1.0000   1.0000   1.0000   1.0000   1.0000   1.0000   1.0000   1.0000
     1.0000   1.0000   1.0000   1.0000   1.0000   1.0000   1.0000   0.0000
     0.0000   0.0000   0.0000   0.0000   0.0000   0.0000   0.0000   0.0000
     0.0000   0.0000   0.0000   0.0000   0.0000   0.0000   0.0000   0.0000
     0.0000   0.0000   0.0000   0.0000   0.0000   0.0000   0.0000   0.0000

     the Fermi energy is    -0.6551 ev

!    total energy              =    -932.24384898 Ry
     Harris-Foulkes estimate   =    -932.24384898 Ry
     estimated scf accuracy    <          7.4E-11 Ry

     total all-electron energy =    -25921.987271 Ry

     The total energy is the sum of the following terms:

     one-electron contribution =    -650.03205788 Ry
     hartree contribution      =     328.70107049 Ry
     xc contribution           =     -72.23381943 Ry
     ewald contribution        =      42.37943829 Ry
     one-center paw contrib.   =    -581.05766339 Ry
      -> PAW hartree energy AE =     112.66120939 Ry
      -> PAW hartree energy PS =    -103.03598757 Ry
      -> PAW xc energy AE      =    -318.44608213 Ry
      -> PAW xc energy PS      =      26.43109993 Ry
      -> total E_H with PAW    =     338.32629230 Ry
      -> total E_XC with PAW   =    -364.24880163 Ry
     smearing contrib. (-TS)   =      -0.00081705 Ry

     convergence has been achieved in   9 iterations

     negative rho (up, down):  2.212E-04 0.000E+00

     Forces acting on atoms (cartesian axes, Ry/au):

     atom    1 type  1   force =    -0.00000199   -0.00000152   -0.00000303
     atom    2 type  2   force =     0.00000199    0.00000152    0.00000303
     The non-local contrib.  to forces
     atom    1 type  1   force =     0.00000154   -0.00000099   -0.00001817
     atom    2 type  2   force =     0.00000689   -0.00000326   -0.00000628
     The ionic contribution  to forces
     atom    1 type  1   force =    -0.00000000   -0.00000000    0.00000000
     atom    2 type  2   force =     0.00000000    0.00000000   -0.00000000
     The local contribution  to forces
     atom    1 type  1   force =    -0.00000069    0.00000196    0.00002691
     atom    2 type  2   force =     0.00000031   -0.00000009    0.00002391
     The core correction contribution to forces
     atom    1 type  1   force =    -0.00000001    0.00000002    0.00000033
     atom    2 type  2   force =    -0.00000008    0.00000003    0.00000019
     The Hubbard contrib.    to forces
     atom    1 type  1   force =     0.00000000    0.00000000    0.00000000
     atom    2 type  2   force =     0.00000000    0.00000000    0.00000000
     The SCF correction term to forces
     atom    1 type  1   force =     0.00000092   -0.00000420   -0.00002768
     atom    2 type  2   force =    -0.00000137    0.00000315   -0.00003035

     Total force =     0.000006     Total SCF correction =     0.000041
     SCF correction compared to forces is large: reduce conv_thr to get better values


     Computing stress (Cartesian axis) and pressure


     negative rho (up, down):  2.212E-04 0.000E+00
          total   stress  (Ry/bohr**3)                   (kbar)     P=   -0.46
  -0.00000301   0.00000000   0.00000000         -0.44      0.00      0.00
   0.00000000  -0.00000301   0.00000000          0.00     -0.44      0.00
   0.00000000   0.00000000  -0.00000343          0.00      0.00     -0.50

     kinetic stress (kbar)   2586.06      0.00     -0.00
                                0.00   2586.06     -0.00
                               -0.00     -0.00   2625.06

     local   stress (kbar) -46484.35      0.00     -0.00
                                0.00 -46484.35     -0.00
                               -0.00     -0.00  51591.30

     nonloc. stress (kbar)    952.25      0.00      0.00
                                0.00    952.25      0.00
                                0.00      0.00    920.77

     hartree stress (kbar)  25778.19     -0.00      0.00
                               -0.00  25778.19      0.00
                                0.00      0.00 -20549.11

     exc-cor stress (kbar)   1694.57      0.00      0.00
                                0.00   1694.57      0.00
                                0.00      0.00   1694.57

     corecor stress (kbar)  -3112.09      0.00     -0.00
                                0.00  -3112.09     -0.00
                               -0.00     -0.00  -3110.97

     ewald   stress (kbar)  18584.94     -0.00      0.00
                               -0.00  18584.94      0.00
                                0.00      0.00 -33172.12

     hubbard stress (kbar)      0.00      0.00      0.00
                                0.00      0.00      0.00
                                0.00      0.00      0.00

     london  stress (kbar)      0.00      0.00      0.00
                                0.00      0.00      0.00
                                0.00      0.00      0.00

     DFT-D3  stress (kbar)      0.00      0.00      0.00
                                0.00      0.00      0.00
                                0.00      0.00      0.00

     XDM     stress (kbar)      0.00      0.00      0.00
                                0.00      0.00      0.00
                                0.00      0.00      0.00

     dft-nl  stress (kbar)      0.00      0.00      0.00
                                0.00      0.00      0.00
                                0.00      0.00      0.00

     TS-vdW  stress (kbar)      0.00      0.00      0.00
                                0.00      0.00      0.00
                                0.00      0.00      0.00



     Writing output data file snte.save/
 
     init_run     :    156.99s CPU    161.02s WALL (       1 calls)
     electrons    :   5019.77s CPU   5081.26s WALL (       1 calls)
     forces       :     12.49s CPU     12.68s WALL (       1 calls)
     stress       :     63.16s CPU     63.71s WALL (       1 calls)

     Called by init_run:
     wfcinit      :    154.79s CPU    158.48s WALL (       1 calls)
     wfcinit:atom :      2.08s CPU      2.10s WALL (    1600 calls)
     wfcinit:wfcr :    142.35s CPU    145.98s WALL (    1600 calls)
     potinit      :      0.19s CPU      0.19s WALL (       1 calls)
     hinit0       :      1.36s CPU      1.47s WALL (       1 calls)

     Called by electrons:
     c_bands      :   4315.42s CPU   4363.31s WALL (      10 calls)
     sum_band     :    699.02s CPU    710.24s WALL (      10 calls)
     v_of_rho     :      0.17s CPU      0.20s WALL (      10 calls)
     v_h          :      0.07s CPU      0.10s WALL (      10 calls)
     v_xc         :      0.11s CPU      0.11s WALL (      12 calls)
     newd         :      4.90s CPU      7.41s WALL (      10 calls)
     PAW_pot      :      0.54s CPU      0.54s WALL (      10 calls)
     mix_rho      :      0.16s CPU      0.18s WALL (      10 calls)

     Called by c_bands:
     init_us_2    :     65.12s CPU     65.80s WALL (   36800 calls)
     cegterg      :   4051.11s CPU   4097.85s WALL (   16000 calls)

     Called by sum_band:
     sum_band:bec :      0.77s CPU      0.78s WALL (   16000 calls)
     addusdens    :      5.95s CPU      8.37s WALL (      10 calls)

     Called by *egterg:
     h_psi        :   3206.39s CPU   3250.51s WALL (   70220 calls)
     s_psi        :     83.16s CPU     83.92s WALL (   70220 calls)
     g_psi        :     16.51s CPU     16.62s WALL (   52620 calls)
     cdiaghg      :    294.20s CPU    296.32s WALL (   67020 calls)
     cegterg:over :    213.92s CPU    215.54s WALL (   52620 calls)
     cegterg:upda :    175.01s CPU    176.00s WALL (   52620 calls)
     cegterg:last :     86.85s CPU     87.21s WALL (   17600 calls)

     Called by h_psi:
     h_psi:pot    :   3190.16s CPU   3233.54s WALL (   70220 calls)
     h_psi:calbec :     69.49s CPU     70.38s WALL (   70220 calls)
     vloc_psi     :   3032.35s CPU   3073.99s WALL (   70220 calls)
     add_vuspsi   :     87.46s CPU     88.47s WALL (   70220 calls)

     General routines
     calbec       :     99.87s CPU    101.29s WALL (   94220 calls)
     fft          :      0.35s CPU      0.41s WALL (      67 calls)
     ffts         :      0.04s CPU      0.04s WALL (      20 calls)
     fftw         :   3169.72s CPU   3212.92s WALL ( 3851070 calls)
     interpolate  :      0.08s CPU      0.09s WALL (      10 calls)
 
     Parallel routines
     fft_scatt_xy :    543.34s CPU    550.52s WALL ( 3851157 calls)
     fft_scatt_yz :    726.18s CPU    737.89s WALL ( 3851157 calls)

     PAW routines
     PAW_pot      :      0.54s CPU      0.54s WALL (      10 calls)
 
     PWSCF        :      1h27m CPU      1h28m WALL

 
   This run was terminated on:   9:34: 0  16Oct2023            

=------------------------------------------------------------------------------=
   JOB DONE.
=------------------------------------------------------------------------------=
