ESCALE ; pCOHP file generated by LOBSTER. Energy is shifted such that the Fermi level lies at 0 eV.
        83          1       1001  -3.63042e+01   7.73989e+00   7.36885e-01 
Average
No.1:Pb1->Te2(3.0726009802407082)
No.1:Pb1[6s]->Te2[5s](3.0726009802407082)
No.1:Pb1[6s]->Te2[5p_y](3.0726009802407082)
No.1:Pb1[6s]->Te2[5p_z](3.0726009802407082)
No.1:Pb1[6s]->Te2[5p_x](3.0726009802407082)
No.1:Pb1[6s]->Te2[4d_xy](3.0726009802407082)
No.1:Pb1[6s]->Te2[4d_yz](3.0726009802407082)
No.1:Pb1[6s]->Te2[4d_z^2](3.0726009802407082)
No.1:Pb1[6s]->Te2[4d_xz](3.0726009802407082)
No.1:Pb1[6s]->Te2[4d_x^2-y^2](3.0726009802407082)
No.1:Pb1[6p_y]->Te2[5s](3.0726009802407082)
No.1:Pb1[6p_y]->Te2[5p_y](3.0726009802407082)
No.1:Pb1[6p_y]->Te2[5p_z](3.0726009802407082)
No.1:Pb1[6p_y]->Te2[5p_x](3.0726009802407082)
No.1:Pb1[6p_y]->Te2[4d_xy](3.0726009802407082)
No.1:Pb1[6p_y]->Te2[4d_yz](3.0726009802407082)
No.1:Pb1[6p_y]->Te2[4d_z^2](3.0726009802407082)
No.1:Pb1[6p_y]->Te2[4d_xz](3.0726009802407082)
No.1:Pb1[6p_y]->Te2[4d_x^2-y^2](3.0726009802407082)
No.1:Pb1[6p_z]->Te2[5s](3.0726009802407082)
No.1:Pb1[6p_z]->Te2[5p_y](3.0726009802407082)
No.1:Pb1[6p_z]->Te2[5p_z](3.0726009802407082)
No.1:Pb1[6p_z]->Te2[5p_x](3.0726009802407082)
No.1:Pb1[6p_z]->Te2[4d_xy](3.0726009802407082)
No.1:Pb1[6p_z]->Te2[4d_yz](3.0726009802407082)
No.1:Pb1[6p_z]->Te2[4d_z^2](3.0726009802407082)
No.1:Pb1[6p_z]->Te2[4d_xz](3.0726009802407082)
No.1:Pb1[6p_z]->Te2[4d_x^2-y^2](3.0726009802407082)
No.1:Pb1[6p_x]->Te2[5s](3.0726009802407082)
No.1:Pb1[6p_x]->Te2[5p_y](3.0726009802407082)
No.1:Pb1[6p_x]->Te2[5p_z](3.0726009802407082)
No.1:Pb1[6p_x]->Te2[5p_x](3.0726009802407082)
No.1:Pb1[6p_x]->Te2[4d_xy](3.0726009802407082)
No.1:Pb1[6p_x]->Te2[4d_yz](3.0726009802407082)
No.1:Pb1[6p_x]->Te2[4d_z^2](3.0726009802407082)
No.1:Pb1[6p_x]->Te2[4d_xz](3.0726009802407082)
No.1:Pb1[6p_x]->Te2[4d_x^2-y^2](3.0726009802407082)
No.1:Pb1[5d_xy]->Te2[5s](3.0726009802407082)
No.1:Pb1[5d_xy]->Te2[5p_y](3.0726009802407082)
No.1:Pb1[5d_xy]->Te2[5p_z](3.0726009802407082)
No.1:Pb1[5d_xy]->Te2[5p_x](3.0726009802407082)
No.1:Pb1[5d_xy]->Te2[4d_xy](3.0726009802407082)
No.1:Pb1[5d_xy]->Te2[4d_yz](3.0726009802407082)
No.1:Pb1[5d_xy]->Te2[4d_z^2](3.0726009802407082)
No.1:Pb1[5d_xy]->Te2[4d_xz](3.0726009802407082)
No.1:Pb1[5d_xy]->Te2[4d_x^2-y^2](3.0726009802407082)
No.1:Pb1[5d_yz]->Te2[5s](3.0726009802407082)
No.1:Pb1[5d_yz]->Te2[5p_y](3.0726009802407082)
No.1:Pb1[5d_yz]->Te2[5p_z](3.0726009802407082)
No.1:Pb1[5d_yz]->Te2[5p_x](3.0726009802407082)
No.1:Pb1[5d_yz]->Te2[4d_xy](3.0726009802407082)
No.1:Pb1[5d_yz]->Te2[4d_yz](3.0726009802407082)
No.1:Pb1[5d_yz]->Te2[4d_z^2](3.0726009802407082)
No.1:Pb1[5d_yz]->Te2[4d_xz](3.0726009802407082)
No.1:Pb1[5d_yz]->Te2[4d_x^2-y^2](3.0726009802407082)
No.1:Pb1[5d_z^2]->Te2[5s](3.0726009802407082)
No.1:Pb1[5d_z^2]->Te2[5p_y](3.0726009802407082)
No.1:Pb1[5d_z^2]->Te2[5p_z](3.0726009802407082)
No.1:Pb1[5d_z^2]->Te2[5p_x](3.0726009802407082)
No.1:Pb1[5d_z^2]->Te2[4d_xy](3.0726009802407082)
No.1:Pb1[5d_z^2]->Te2[4d_yz](3.0726009802407082)
No.1:Pb1[5d_z^2]->Te2[4d_z^2](3.0726009802407082)
No.1:Pb1[5d_z^2]->Te2[4d_xz](3.0726009802407082)
No.1:Pb1[5d_z^2]->Te2[4d_x^2-y^2](3.0726009802407082)
No.1:Pb1[5d_xz]->Te2[5s](3.0726009802407082)
No.1:Pb1[5d_xz]->Te2[5p_y](3.0726009802407082)
No.1:Pb1[5d_xz]->Te2[5p_z](3.0726009802407082)
No.1:Pb1[5d_xz]->Te2[5p_x](3.0726009802407082)
No.1:Pb1[5d_xz]->Te2[4d_xy](3.0726009802407082)
No.1:Pb1[5d_xz]->Te2[4d_yz](3.0726009802407082)
No.1:Pb1[5d_xz]->Te2[4d_z^2](3.0726009802407082)
No.1:Pb1[5d_xz]->Te2[4d_xz](3.0726009802407082)
No.1:Pb1[5d_xz]->Te2[4d_x^2-y^2](3.0726009802407082)
No.1:Pb1[5d_x^2-y^2]->Te2[5s](3.0726009802407082)
No.1:Pb1[5d_x^2-y^2]->Te2[5p_y](3.0726009802407082)
No.1:Pb1[5d_x^2-y^2]->Te2[5p_z](3.0726009802407082)
No.1:Pb1[5d_x^2-y^2]->Te2[5p_x](3.0726009802407082)
No.1:Pb1[5d_x^2-y^2]->Te2[4d_xy](3.0726009802407082)
No.1:Pb1[5d_x^2-y^2]->Te2[4d_yz](3.0726009802407082)
No.1:Pb1[5d_x^2-y^2]->Te2[4d_z^2](3.0726009802407082)
No.1:Pb1[5d_x^2-y^2]->Te2[4d_xz](3.0726009802407082)
No.1:Pb1[5d_x^2-y^2]->Te2[4d_x^2-y^2](3.0726009802407082)
-37.04104   0.00000  -0.00000   0.00000  -0.00005   0.00000  -0.00000   0.00000  -0.00000   0.00000  -0.00000   0.00000  -0.00000   0.00000  -0.00001   0.00000  -0.00000   0.00000  -0.00000   0.00000  -0.00000   0.00000  -0.00000   0.00000  -0.00000   0.00000  -0.00000   0.00000   0.00000   0.00000  -0.00000   0.00000  -0.00001   0.00000  -0.00000   0.00000  -0.00000   0.00000  -0.00000   0.00000  -0.00000   0.00000  -0.00000   0.00000  -0.00000   0.00000  -0.00000   0.00000  -0.00000   0.00000  -0.00001   0.00000  -0.00000   0.00000  -0.00000   0.00000  -0.00000   0.00000  -0.00000   0.00000  -0.00000   0.00000  -0.00000   0.00000   0.00000   0.00000  -0.00000   0.00000  -0.00001   0.00000  -0.00000   0.00000  -0.00000   0.00000  -0.00000   0.00000  -0.00000   0.00000  -0.00000   0.00000  -0.00000   0.00000   0.00000   0.00000  -0.00000   0.00000  -0.00000   0.00000  -0.00000   0.00000  -0.00000   0.00000  -0.00000   0.00000  -0.00000   0.00000  -0.00000   0.00000  -0.00000   0.00000   0.00000   0.00000  -0.00000   0.00000  -0.00000   0.00000  -0.00000   0.00000  -0.00000   0.00000  -0.00000   0.00000  -0.00000   0.00000   0.00000   0.00000  -0.00000   0.00000  -0.00000   0.00000  -0.00000   0.00000  -0.00000   0.00000  -0.00000   0.00000  -0.00000   0.00000  -0.00000   0.00000   0.00000   0.00000  -0.00000   0.00000  -0.00000   0.00000   0.00000   0.00000  -0.00000   0.00000  -0.00000   0.00000  -0.00000   0.00000  -0.00000   0.00000  -0.00000   0.00000  -0.00000   0.00000   0.00000   0.00000  -0.00000   0.00000  -0.00000   0.00000  -0.00000   0.00000  -0.00000   0.00000  -0.00000   0.00000   0.00000   0.00000  -0.00000   0.00000  -0.00000
-36.99700  -0.00004  -0.00000  -0.00178  -0.00013  -0.00000  -0.00000  -0.00000  -0.00000  -0.00000  -0.00000  -0.00000  -0.00000  -0.00022  -0.00002  -0.00005  -0.00000  -0.00000  -0.00000  -0.00005  -0.00000  -0.00000  -0.00000   0.00000  -0.00000  -0.00000  -0.00000   0.00000   0.00000  -0.00000  -0.00000  -0.00022  -0.00002  -0.00006  -0.00000  -0.00000  -0.00000  -0.00015  -0.00001  -0.00008  -0.00001  -0.00000  -0.00000  -0.00000  -0.00000  -0.00000  -0.00000  -0.00000  -0.00000  -0.00032  -0.00002  -0.00000  -0.00000  -0.00006  -0.00000  -0.00000  -0.00000  -0.00000  -0.00000  -0.00000  -0.00000  -0.00000  -0.00000   0.00000   0.00000  -0.00000  -0.00000  -0.00022  -0.00002  -0.00015  -0.00001  -0.00000  -0.00000  -0.00006  -0.00000  -0.00008  -0.00001  -0.00000  -0.00000  -0.00000  -0.00000   0.00000   0.00000  -0.00000  -0.00000  -0.00001  -0.00000  -0.00000  -0.00000  -0.00000  -0.00000  -0.00000  -0.00000  -0.00000  -0.00000  -0.00000  -0.00000  -0.00000  -0.00000   0.00000   0.00000  -0.00000  -0.00000  -0.00001  -0.00000  -0.00000  -0.00000  -0.00000  -0.00000  -0.00000  -0.00000  -0.00000  -0.00000   0.00000   0.00000  -0.00000  -0.00000  -0.00000  -0.00000  -0.00000  -0.00000  -0.00000  -0.00000  -0.00000  -0.00000  -0.00000  -0.00000  -0.00000  -0.00000   0.00000   0.00000  -0.00000  -0.00000  -0.00000  -0.00000   0.00000   0.00000  -0.00000  -0.00000  -0.00001  -0.00000  -0.00000  -0.00000  -0.00000  -0.00000  -0.00000  -0.00000  -0.00000  -0.00000   0.00000   0.00000  -0.00000  -0.00000  -0.00000  -0.00000  -0.00000  -0.00000  -0.00000  -0.00000  -0.00000  -0.00000   0.00000   0.00000  -0.00000  -0.00000  -0.00000  -0.00000
-36.95295  -0.00010  -0.00001  -0.00394  -0.00030  -0.00000  -0.00000  -0.00000  -0.00000  -0.00000  -0.00000  -0.00000  -0.00000  -0.00048  -0.00004  -0.00011  -0.00001  -0.00001  -0.00000  -0.00011  -0.00001  -0.00000  -0.00000   0.00000   0.00000  -0.00000  -0.00000   0.00000   0.00000  -0.00000  -0.00000  -0.00046  -0.00004  -0.00014  -0.00001  -0.00000  -0.00000  -0.00035  -0.00003  -0.00017  -0.00001  -0.00000  -0.00000  -0.00000  -0.00000   0.00000  -0.00000  -0.00000  -0.00000  -0.00068  -0.00005  -0.00001  -0.00000  -0.00015  -0.00001  -0.00001  -0.00000  -0.00000  -0.00000   0.00000   0.00000  -0.00000  -0.00000   0.00000   0.00000  -0.00000  -0.00000  -0.00047  -0.00004  -0.00035  -0.00003  -0.00000  -0.00000  -0.00014  -0.00001  -0.00017  -0.00001  -0.00000  -0.00000  -0.00000  -0.00000   0.00000   0.00000  -0.00000  -0.00000  -0.00002  -0.00000  -0.00001  -0.00000  -0.00000  -0.00000  -0.00001  -0.00000  -0.00000  -0.00000  -0.00000  -0.00000  -0.00000  -0.00000   0.00000   0.00000  -0.00000  -0.00000  -0.00002  -0.00000  -0.00000  -0.00000  -0.00000  -0.00000  -0.00000  -0.00000  -0.00000  -0.00000   0.00000   0.00000  -0.00000  -0.00000  -0.00000  -0.00000  -0.00000  -0.00000  -0.00000  -0.00000  -0.00000  -0.00000  -0.00000  -0.00000  -0.00000  -0.00000   0.00000   0.00000  -0.00000  -0.00000  -0.00000  -0.00000   0.00000   0.00000  -0.00000  -0.00000  -0.00002  -0.00000  -0.00000  -0.00000  -0.00000  -0.00000  -0.00000  -0.00000  -0.00000  -0.00000   0.00000   0.00000  -0.00000  -0.00000  -0.00000  -0.00000  -0.00000  -0.00000  -0.00000  -0.00000  -0.00000  -0.00000   0.00000   0.00000  -0.00000  -0.00000  -0.00001  -0.00000
-36.90891  -0.00019  -0.00002  -0.00792  -0.00065  -0.00000  -0.00000  -0.00000  -0.00000  -0.00000  -0.00000  -0.00000  -0.00000  -0.00093  -0.00008  -0.00024  -0.00002  -0.00002  -0.00000  -0.00024  -0.00002  -0.00000  -0.00000   0.00000   0.00000  -0.00001  -0.00000   0.00000   0.00000  -0.00000  -0.00000  -0.00091  -0.00008  -0.00030  -0.00002  -0.00000  -0.00000  -0.00074  -0.00006  -0.00033  -0.00003  -0.00000  -0.00000  -0.00000  -0.00000   0.00000   0.00000  -0.00000  -0.00000  -0.00132  -0.00011  -0.00002  -0.00000  -0.00033  -0.00003  -0.00002  -0.00000  -0.00000  -0.00000   0.00000   0.00000  -0.00000  -0.00000   0.00000   0.00000  -0.00001  -0.00000  -0.00091  -0.00008  -0.00074  -0.00006  -0.00000  -0.00000  -0.00030  -0.00002  -0.00033  -0.00003  -0.00000  -0.00000  -0.00000  -0.00000   0.00000   0.00000  -0.00000  -0.00000  -0.00004  -0.00000  -0.00002  -0.00000  -0.00000  -0.00000  -0.00002  -0.00000  -0.00000  -0.00000  -0.00000  -0.00000  -0.00000  -0.00000   0.00000   0.00000  -0.00000  -0.00000  -0.00004  -0.00000  -0.00001  -0.00000  -0.00000  -0.00000  -0.00001  -0.00000  -0.00000  -0.00000   0.00000   0.00000  -0.00000  -0.00000  -0.00000  -0.00000  -0.00000  -0.00000  -0.00000  -0.00000  -0.00000  -0.00000  -0.00000  -0.00000  -0.00000  -0.00000   0.00000   0.00000  -0.00000  -0.00000  -0.00000  -0.00000   0.00000   0.00000  -0.00000  -0.00000  -0.00004  -0.00000  -0.00001  -0.00000  -0.00000  -0.00000  -0.00001  -0.00000  -0.00000  -0.00000   0.00000   0.00000  -0.00000  -0.00000  -0.00000  -0.00000  -0.00000  -0.00000  -0.00000  -0.00000  -0.00000  -0.00000   0.00000   0.00000  -0.00000  -0.00000  -0.00001  -0.00000
-36.86486  -0.00035  -0.00003  -0.01449  -0.00129  -0.00000  -0.00000  -0.00000  -0.00000  -0.00001  -0.00000  -0.00000  -0.00000  -0.00164  -0.00015  -0.00045  -0.00004  -0.00004  -0.00000  -0.00045  -0.00004  -0.00000  -0.00000   0.00000   0.00000  -0.00001  -0.00000   0.00001   0.00000  -0.00000  -0.00000  -0.00160  -0.00015  -0.00057  -0.00005  -0.00000  -0.00000  -0.00142  -0.00012  -0.00060  -0.00005  -0.00000  -0.00000  -0.00001  -0.00000   0.00000   0.00000  -0.00001  -0.00000  -0.00233  -0.00021  -0.00004  -0.00000  -0.00064  -0.00005  -0.00004  -0.00000  -0.00000  -0.00000   0.00000   0.00000  -0.00000  -0.00000   0.00001   0.00000  -0.00001  -0.00000  -0.00161  -0.00015  -0.00142  -0.00012  -0.00000  -0.00000  -0.00058  -0.00005  -0.00059  -0.00005  -0.00000  -0.00000  -0.00000  -0.00000   0.00000   0.00000  -0.00000  -0.00000  -0.00008  -0.00001  -0.00004  -0.00000  -0.00000  -0.00000  -0.00004  -0.00000  -0.00000  -0.00000  -0.00000  -0.00000  -0.00000  -0.00000   0.00000   0.00000  -0.00000  -0.00000  -0.00007  -0.00001  -0.00001  -0.00000  -0.00001  -0.00000  -0.00002  -0.00000  -0.00000  -0.00000   0.00000   0.00000  -0.00000  -0.00000  -0.00000  -0.00000  -0.00000  -0.00000  -0.00000  -0.00000  -0.00001  -0.00000  -0.00000  -0.00000  -0.00001  -0.00000   0.00000   0.00000  -0.00000  -0.00000  -0.00000  -0.00000   0.00000   0.00000  -0.00000  -0.00000  -0.00007  -0.00001  -0.00002  -0.00000  -0.00001  -0.00000  -0.00001  -0.00000  -0.00000  -0.00000   0.00000   0.00000  -0.00000  -0.00000  -0.00000  -0.00000  -0.00000  -0.00000  -0.00000  -0.00000  -0.00000  -0.00000   0.00000   0.00000  -0.00000  -0.00000  -0.00002  -0.00000
-36.82082  -0.00059  -0.00006  -0.02412  -0.00235  -0.00000  -0.00000  -0.00001  -0.00000  -0.00001  -0.00000  -0.00001  -0.00000  -0.00263  -0.00027  -0.00078  -0.00007  -0.00007  -0.00001  -0.00079  -0.00007  -0.00000  -0.00000   0.00000   0.00000  -0.00002  -0.00000   0.00001   0.00000  -0.00001  -0.00000  -0.00258  -0.00026  -0.00099  -0.00009  -0.00000  -0.00000  -0.00247  -0.00023  -0.00097  -0.00010  -0.00001  -0.00000  -0.00001  -0.00000   0.00000   0.00000  -0.00001  -0.00000  -0.00373  -0.00038  -0.00008  -0.00001  -0.00114  -0.00010  -0.00008  -0.00001  -0.00000  -0.00000   0.00000   0.00000  -0.00001  -0.00000   0.00001   0.00000  -0.00002  -0.00000  -0.00259  -0.00026  -0.00246  -0.00023  -0.00000  -0.00000  -0.00101  -0.00009  -0.00096  -0.00010  -0.00000  -0.00000  -0.00000  -0.00000   0.00000   0.00000  -0.00000  -0.00000  -0.00012  -0.00001  -0.00007  -0.00001  -0.00000  -0.00000  -0.00007  -0.00001  -0.00000  -0.00000  -0.00000  -0.00000  -0.00000  -0.00000   0.00000   0.00000  -0.00000  -0.00000  -0.00011  -0.00001  -0.00002  -0.00000  -0.00001  -0.00000  -0.00003  -0.00000  -0.00001  -0.00000   0.00000   0.00000  -0.00000  -0.00000  -0.00000  -0.00000  -0.00000  -0.00000  -0.00000  -0.00000  -0.00002  -0.00000  -0.00001  -0.00000  -0.00002  -0.00000   0.00000   0.00000  -0.00000  -0.00000  -0.00000  -0.00000   0.00000   0.00000  -0.00000  -0.00000  -0.00011  -0.00001  -0.00003  -0.00000  -0.00001  -0.00000  -0.00002  -0.00000  -0.00001  -0.00000   0.00000   0.00000  -0.00000  -0.00000  -0.00000  -0.00000  -0.00000  -0.00000  -0.00000  -0.00000  -0.00000  -0.00000   0.00000   0.00000  -0.00000  -0.00000  -0.00003  -0.00000
-36.77678  -0.00089  -0.00010  -0.03651  -0.00396  -0.00000  -0.00000  -0.00001  -0.00000  -0.00002  -0.00000  -0.00001  -0.00000  -0.00383  -0.00043  -0.00124  -0.00013  -0.00012  -0.00001  -0.00124  -0.00013  -0.00000  -0.00000   0.00000   0.00000  -0.00003  -0.00000   0.00001   0.00000  -0.00001  -0.00000  -0.00377  -0.00043  -0.00157  -0.00016  -0.00001  -0.00000  -0.00389  -0.00040  -0.00143  -0.00016  -0.00001  -0.00000  -0.00002  -0.00000   0.00000   0.00000  -0.00002  -0.00000  -0.00545  -0.00062  -0.00012  -0.00001  -0.00186  -0.00019  -0.00012  -0.00001  -0.00000  -0.00000   0.00000   0.00000  -0.00001  -0.00000   0.00001   0.00000  -0.00003  -0.00000  -0.00379  -0.00043  -0.00389  -0.00040  -0.00001  -0.00000  -0.00159  -0.00016  -0.00142  -0.00016  -0.00000  -0.00000  -0.00000  -0.00000   0.00000   0.00000  -0.00000  -0.00000  -0.00018  -0.00002  -0.00011  -0.00001  -0.00000  -0.00000  -0.00011  -0.00001  -0.00000  -0.00000  -0.00000  -0.00000  -0.00000  -0.00000   0.00000   0.00000  -0.00000  -0.00000  -0.00016  -0.00002  -0.00003  -0.00000  -0.00002  -0.00000  -0.00005  -0.00001  -0.00001  -0.00000   0.00000   0.00000  -0.00000  -0.00000  -0.00000  -0.00000  -0.00000  -0.00000  -0.00000  -0.00000  -0.00002  -0.00000  -0.00001  -0.00000  -0.00002  -0.00000   0.00000   0.00000  -0.00000  -0.00000  -0.00000  -0.00000   0.00000   0.00000  -0.00000  -0.00000  -0.00016  -0.00002  -0.00005  -0.00001  -0.00002  -0.00000  -0.00003  -0.00000  -0.00001  -0.00000   0.00000   0.00000  -0.00000  -0.00000  -0.00000  -0.00000  -0.00000  -0.00000  -0.00000  -0.00000  -0.00000  -0.00000   0.00000   0.00000  -0.00000  -0.00000  -0.00005  -0.00001
-36.73273  -0.00123  -0.00015  -0.05029  -0.00618  -0.00000  -0.00000  -0.00001  -0.00000  -0.00002  -0.00000  -0.00001  -0.00000  -0.00508  -0.00066  -0.00177  -0.00021  -0.00018  -0.00002  -0.00178  -0.00021  -0.00000  -0.00000   0.00001   0.00000  -0.00004  -0.00000   0.00002   0.00000  -0.00001  -0.00000  -0.00501  -0.00065  -0.00226  -0.00026  -0.00001  -0.00000  -0.00558  -0.00065  -0.00192  -0.00024  -0.00001  -0.00000  -0.00002  -0.00000   0.00000   0.00000  -0.00002  -0.00000  -0.00721  -0.00094  -0.00017  -0.00002  -0.00274  -0.00031  -0.00017  -0.00002  -0.00000  -0.00000   0.00001   0.00000  -0.00001  -0.00000   0.00002   0.00000  -0.00004  -0.00000  -0.00503  -0.00065  -0.00558  -0.00065  -0.00001  -0.00000  -0.00228  -0.00026  -0.00191  -0.00024  -0.00000  -0.00000  -0.00000  -0.00000   0.00000   0.00000  -0.00000  -0.00000  -0.00024  -0.00003  -0.00016  -0.00002  -0.00000  -0.00000  -0.00016  -0.00002  -0.00000  -0.00000  -0.00000  -0.00000  -0.00000  -0.00000   0.00000   0.00000  -0.00000  -0.00000  -0.00021  -0.00003  -0.00004  -0.00000  -0.00003  -0.00000  -0.00007  -0.00001  -0.00001  -0.00000   0.00000   0.00000  -0.00000  -0.00000  -0.00000  -0.00000  -0.00000  -0.00000  -0.00000  -0.00000  -0.00003  -0.00000  -0.00001  -0.00000  -0.00003  -0.00000   0.00000   0.00000  -0.00000  -0.00000  -0.00000  -0.00000   0.00000   0.00000  -0.00000  -0.00000  -0.00021  -0.00003  -0.00007  -0.00001  -0.00003  -0.00000  -0.00004  -0.00000  -0.00001  -0.00000   0.00000   0.00000  -0.00000  -0.00000  -0.00000  -0.00000  -0.00000  -0.00000  -0.00000  -0.00000  -0.00000  -0.00000   0.00000   0.00000  -0.00000  -0.00000  -0.00006  -0.00001
-36.68869  -0.00154  -0.00022  -0.06301  -0.00895  -0.00000  -0.00000  -0.00002  -0.00000  -0.00003  -0.00000  -0.00002  -0.00000  -0.00611  -0.00093  -0.00231  -0.00031  -0.00024  -0.00003  -0.00232  -0.00031  -0.00000  -0.00000   0.00001   0.00000  -0.00004  -0.00001   0.00002   0.00000  -0.00001  -0.00000  -0.00603  -0.00091  -0.00295  -0.00039  -0.00002  -0.00000  -0.00727  -0.00097  -0.00235  -0.00035  -0.00002  -0.00000  -0.00003  -0.00000   0.00000   0.00000  -0.00003  -0.00000  -0.00868  -0.00132  -0.00022  -0.00003  -0.00367  -0.00047  -0.00022  -0.00003  -0.00000  -0.00000   0.00001   0.00000  -0.00001  -0.00000   0.00002   0.00000  -0.00005  -0.00001  -0.00606  -0.00092  -0.00726  -0.00097  -0.00001  -0.00000  -0.00298  -0.00040  -0.00232  -0.00035  -0.00000  -0.00000  -0.00000  -0.00000   0.00000   0.00000  -0.00000  -0.00000  -0.00029  -0.00004  -0.00021  -0.00003  -0.00000  -0.00000  -0.00021  -0.00003  -0.00000  -0.00000  -0.00000  -0.00000  -0.00000  -0.00000   0.00000   0.00000  -0.00000  -0.00000  -0.00025  -0.00004  -0.00005  -0.00001  -0.00004  -0.00001  -0.00009  -0.00001  -0.00001  -0.00000   0.00000   0.00000  -0.00000  -0.00000  -0.00000  -0.00000  -0.00000  -0.00000  -0.00000  -0.00000  -0.00005  -0.00001  -0.00002  -0.00000  -0.00005  -0.00001   0.00000   0.00000  -0.00000  -0.00000  -0.00000  -0.00000   0.00000   0.00000  -0.00000  -0.00000  -0.00025  -0.00004  -0.00009  -0.00001  -0.00004  -0.00001  -0.00005  -0.00001  -0.00001  -0.00000   0.00000   0.00000  -0.00000  -0.00000  -0.00000  -0.00000  -0.00000  -0.00000  -0.00000  -0.00000  -0.00000  -0.00000  -0.00000   0.00000  -0.00000  -0.00000  -0.00008  -0.00001
-36.64464  -0.00175  -0.00030  -0.07183  -0.01211  -0.00000  -0.00000  -0.00002  -0.00000  -0.00003  -0.00001  -0.00002  -0.00000  -0.00667  -0.00122  -0.00273  -0.00043  -0.00029  -0.00004  -0.00274  -0.00043  -0.00000  -0.00000   0.00001   0.00000  -0.00005  -0.00001   0.00002   0.00000  -0.00001  -0.00000  -0.00660  -0.00120  -0.00349  -0.00054  -0.00002  -0.00000  -0.00860  -0.00135  -0.00260  -0.00046  -0.00002  -0.00000  -0.00004  -0.00001   0.00000   0.00000  -0.00003  -0.00001  -0.00948  -0.00174  -0.00026  -0.00004  -0.00446  -0.00066  -0.00026  -0.00004  -0.00000  -0.00000   0.00001   0.00000  -0.00001  -0.00000   0.00002   0.00000  -0.00005  -0.00001  -0.00664  -0.00121  -0.00859  -0.00134  -0.00002  -0.00000  -0.00353  -0.00055  -0.00257  -0.00046  -0.00000  -0.00000  -0.00000  -0.00000   0.00000   0.00000  -0.00000  -0.00000  -0.00031  -0.00006  -0.00025  -0.00004  -0.00000  -0.00000  -0.00025  -0.00004  -0.00000  -0.00000  -0.00000  -0.00000  -0.00000  -0.00000   0.00000   0.00000  -0.00000  -0.00000  -0.00028  -0.00005  -0.00006  -0.00001  -0.00005  -0.00001  -0.00011  -0.00002  -0.00002  -0.00000   0.00000   0.00000  -0.00000  -0.00000  -0.00000  -0.00000  -0.00000  -0.00000  -0.00000  -0.00000  -0.00005  -0.00001  -0.00002  -0.00000  -0.00005  -0.00001   0.00000   0.00000  -0.00000  -0.00000  -0.00000  -0.00000   0.00000   0.00000  -0.00000  -0.00000  -0.00028  -0.00005  -0.00011  -0.00002  -0.00005  -0.00001  -0.00006  -0.00001  -0.00001  -0.00000   0.00000   0.00000  -0.00000  -0.00000  -0.00000  -0.00000  -0.00000  -0.00000  -0.00000  -0.00000  -0.00001  -0.00000  -0.00000   0.00000  -0.00001  -0.00000  -0.00008  -0.00001
-36.60060  -0.00182  -0.00038  -0.07450  -0.01540  -0.00000  -0.00000  -0.00002  -0.00000  -0.00004  -0.00001  -0.00002  -0.00000  -0.00662  -0.00151  -0.00293  -0.00056  -0.00032  -0.00006  -0.00295  -0.00056  -0.00000  -0.00000   0.00002   0.00000  -0.00005  -0.00001   0.00002   0.00001  -0.00000  -0.00000  -0.00657  -0.00149  -0.00376  -0.00071  -0.00003  -0.00000  -0.00924  -0.00175  -0.00261  -0.00058  -0.00002  -0.00000  -0.00004  -0.00001   0.00000   0.00000  -0.00004  -0.00001  -0.00941  -0.00215  -0.00028  -0.00005  -0.00493  -0.00088  -0.00028  -0.00005  -0.00000  -0.00000   0.00002   0.00000  -0.00000  -0.00000   0.00002   0.00001  -0.00005  -0.00001  -0.00660  -0.00150  -0.00923  -0.00175  -0.00002  -0.00000  -0.00380  -0.00072  -0.00259  -0.00057  -0.00000  -0.00000  -0.00000  -0.00000   0.00000   0.00000  -0.00000  -0.00000  -0.00031  -0.00007  -0.00027  -0.00005  -0.00000  -0.00000  -0.00027  -0.00005  -0.00000  -0.00000  -0.00000  -0.00000  -0.00000  -0.00000   0.00000   0.00000  -0.00000  -0.00000  -0.00027  -0.00006  -0.00006  -0.00001  -0.00005  -0.00001  -0.00012  -0.00002  -0.00002  -0.00000   0.00000   0.00000  -0.00000  -0.00000  -0.00000  -0.00000  -0.00000  -0.00000  -0.00000  -0.00000  -0.00006  -0.00001  -0.00002  -0.00000  -0.00006  -0.00001  -0.00000   0.00000  -0.00000  -0.00000  -0.00000  -0.00000   0.00000   0.00000  -0.00000  -0.00000  -0.00027  -0.00006  -0.00012  -0.00002  -0.00005  -0.00001  -0.00006  -0.00001  -0.00001  -0.00000   0.00000   0.00000  -0.00000  -0.00000  -0.00000  -0.00000  -0.00000  -0.00000  -0.00000  -0.00000  -0.00001  -0.00000  -0.00000  -0.00000  -0.00001  -0.00000  -0.00008  -0.00002
-36.55656  -0.00171  -0.00045  -0.07031  -0.01849  -0.00000  -0.00000  -0.00002  -0.00000  -0.00003  -0.00001  -0.00002  -0.00000  -0.00596  -0.00178  -0.00286  -0.00068  -0.00032  -0.00007  -0.00287  -0.00069  -0.00000  -0.00000   0.00002   0.00000  -0.00005  -0.00001   0.00002   0.00001  -0.00000  -0.00000  -0.00593  -0.00175  -0.00368  -0.00087  -0.00003  -0.00001  -0.00901  -0.00215  -0.00239  -0.00068  -0.00002  -0.00001  -0.00004  -0.00001   0.00000   0.00000  -0.00004  -0.00001  -0.00848  -0.00252  -0.00027  -0.00007  -0.00494  -0.00110  -0.00027  -0.00007  -0.00000  -0.00000   0.00002   0.00000  -0.00000  -0.00000   0.00002   0.00001  -0.00005  -0.00001  -0.00596  -0.00176  -0.00901  -0.00215  -0.00002  -0.00000  -0.00371  -0.00088  -0.00236  -0.00068  -0.00000  -0.00000  -0.00000  -0.00000   0.00000   0.00000  -0.00000  -0.00000  -0.00028  -0.00008  -0.00027  -0.00006  -0.00000  -0.00000  -0.00027  -0.00006  -0.00000  -0.00000  -0.00000  -0.00000  -0.00000  -0.00000   0.00000   0.00000  -0.00000  -0.00000  -0.00025  -0.00007  -0.00006  -0.00001  -0.00005  -0.00001  -0.00011  -0.00003  -0.00001  -0.00000   0.00000   0.00000  -0.00000  -0.00000  -0.00000  -0.00000  -0.00000  -0.00000  -0.00000  -0.00000  -0.00006  -0.00001  -0.00002  -0.00001  -0.00006  -0.00001  -0.00000   0.00000  -0.00000  -0.00000  -0.00000  -0.00000   0.00000   0.00000  -0.00000  -0.00000  -0.00025  -0.00007  -0.00011  -0.00003  -0.00005  -0.00001  -0.00006  -0.00002  -0.00001  -0.00000   0.00000   0.00000  -0.00000  -0.00000  -0.00000  -0.00000  -0.00000  -0.00000  -0.00000  -0.00000  -0.00001  -0.00000  -0.00000  -0.00000  -0.00001  -0.00000  -0.00008  -0.00002
-36.51251  -0.00147  -0.00052  -0.06036  -0.02115  -0.00000  -0.00000  -0.00001  -0.00001  -0.00003  -0.00001  -0.00001  -0.00001  -0.00488  -0.00199  -0.00254  -0.00079  -0.00029  -0.00008  -0.00255  -0.00080  -0.00000  -0.00000   0.00002   0.00000  -0.00004  -0.00001   0.00002   0.00001   0.00000  -0.00000  -0.00486  -0.00197  -0.00327  -0.00102  -0.00002  -0.00001  -0.00799  -0.00250  -0.00198  -0.00077  -0.00002  -0.00001  -0.00003  -0.00001   0.00000   0.00000  -0.00003  -0.00001  -0.00694  -0.00283  -0.00024  -0.00008  -0.00451  -0.00130  -0.00024  -0.00008  -0.00000  -0.00000   0.00002   0.00000   0.00000  -0.00000   0.00002   0.00001  -0.00004  -0.00001  -0.00489  -0.00198  -0.00799  -0.00250  -0.00002  -0.00000  -0.00329  -0.00103  -0.00196  -0.00076  -0.00000  -0.00000  -0.00000  -0.00000   0.00000   0.00000  -0.00000  -0.00000  -0.00023  -0.00009  -0.00024  -0.00007  -0.00000  -0.00000  -0.00024  -0.00007  -0.00000  -0.00000  -0.00000  -0.00000  -0.00000  -0.00000   0.00000   0.00000  -0.00000  -0.00000  -0.00020  -0.00008  -0.00006  -0.00002  -0.00005  -0.00001  -0.00010  -0.00003  -0.00001  -0.00000   0.00000   0.00000  -0.00000  -0.00000  -0.00000  -0.00000  -0.00000  -0.00000  -0.00000  -0.00000  -0.00005  -0.00002  -0.00002  -0.00001  -0.00005  -0.00002  -0.00000   0.00000  -0.00000  -0.00000  -0.00000  -0.00000   0.00000   0.00000  -0.00000  -0.00000  -0.00020  -0.00008  -0.00010  -0.00003  -0.00005  -0.00001  -0.00006  -0.00002  -0.00001  -0.00000   0.00000   0.00000  -0.00000  -0.00000  -0.00000  -0.00000  -0.00000  -0.00000  -0.00000  -0.00000  -0.00001  -0.00000  -0.00000  -0.00000  -0.00000  -0.00000  -0.00006  -0.00002
-36.46847  -0.00115  -0.00057  -0.04715  -0.02323  -0.00000  -0.00000  -0.00001  -0.00001  -0.00002  -0.00001  -0.00001  -0.00001  -0.00363  -0.00215  -0.00204  -0.00088  -0.00024  -0.00009  -0.00205  -0.00089  -0.00000  -0.00000   0.00001   0.00000  -0.00003  -0.00002   0.00001   0.00001   0.00000  -0.00000  -0.00362  -0.00213  -0.00264  -0.00113  -0.00002  -0.00001  -0.00643  -0.00279  -0.00149  -0.00084  -0.00002  -0.00001  -0.00003  -0.00001   0.00000   0.00000  -0.00003  -0.00001  -0.00516  -0.00306  -0.00019  -0.00008  -0.00373  -0.00146  -0.00019  -0.00008  -0.00000  -0.00000   0.00001   0.00000   0.00000  -0.00000   0.00001   0.00001  -0.00003  -0.00002  -0.00364  -0.00214  -0.00643  -0.00278  -0.00002  -0.00001  -0.00266  -0.00114  -0.00147  -0.00083  -0.00000  -0.00000  -0.00000  -0.00000   0.00000   0.00000  -0.00000  -0.00000  -0.00017  -0.00010  -0.00019  -0.00008  -0.00000  -0.00000  -0.00019  -0.00008  -0.00000  -0.00000  -0.00000  -0.00000  -0.00000  -0.00000   0.00000   0.00000  -0.00000  -0.00000  -0.00015  -0.00009  -0.00005  -0.00002  -0.00004  -0.00002  -0.00008  -0.00003  -0.00001  -0.00000   0.00000   0.00000  -0.00000  -0.00000  -0.00000  -0.00000  -0.00000  -0.00000  -0.00000  -0.00000  -0.00004  -0.00002  -0.00002  -0.00001  -0.00004  -0.00002  -0.00000   0.00000  -0.00000  -0.00000  -0.00000  -0.00000   0.00000   0.00000  -0.00000  -0.00000  -0.00015  -0.00009  -0.00008  -0.00003  -0.00004  -0.00002  -0.00005  -0.00002  -0.00001  -0.00000   0.00000   0.00000  -0.00000  -0.00000  -0.00000  -0.00000  -0.00000  -0.00000  -0.00000  -0.00000  -0.00000  -0.00000  -0.00000  -0.00000  -0.00000  -0.00000  -0.00005  -0.00003
-36.42442  -0.00082  -0.00060  -0.03351  -0.02470  -0.00000  -0.00000  -0.00001  -0.00001  -0.00002  -0.00001  -0.00001  -0.00001  -0.00245  -0.00226  -0.00149  -0.00095  -0.00018  -0.00010  -0.00150  -0.00095  -0.00000  -0.00000   0.00001   0.00000  -0.00002  -0.00002   0.00001   0.00001   0.00000  -0.00000  -0.00245  -0.00224  -0.00193  -0.00122  -0.00002  -0.00001  -0.00470  -0.00299  -0.00102  -0.00088  -0.00001  -0.00001  -0.00002  -0.00001   0.00000   0.00000  -0.00002  -0.00001  -0.00349  -0.00321  -0.00014  -0.00009  -0.00281  -0.00159  -0.00014  -0.00009  -0.00000  -0.00000   0.00001   0.00000   0.00000  -0.00000   0.00001   0.00001  -0.00002  -0.00002  -0.00246  -0.00225  -0.00470  -0.00299  -0.00001  -0.00001  -0.00195  -0.00123  -0.00101  -0.00087  -0.00000  -0.00000  -0.00000  -0.00000   0.00000   0.00000  -0.00000  -0.00000  -0.00012  -0.00011  -0.00014  -0.00009  -0.00000  -0.00000  -0.00014  -0.00009  -0.00000  -0.00000  -0.00000  -0.00000  -0.00000  -0.00000   0.00000   0.00000  -0.00000  -0.00000  -0.00010  -0.00009  -0.00003  -0.00002  -0.00003  -0.00002  -0.00006  -0.00004  -0.00001  -0.00001   0.00000   0.00000  -0.00000  -0.00000  -0.00000  -0.00000  -0.00000  -0.00000  -0.00000  -0.00000  -0.00003  -0.00002  -0.00001  -0.00001  -0.00003  -0.00002  -0.00000  -0.00000  -0.00000  -0.00000  -0.00000  -0.00000   0.00000   0.00000  -0.00000  -0.00000  -0.00010  -0.00009  -0.00006  -0.00004  -0.00003  -0.00002  -0.00003  -0.00002  -0.00001  -0.00000  -0.00000   0.00000  -0.00000  -0.00000  -0.00000  -0.00000  -0.00000  -0.00000  -0.00000  -0.00000  -0.00000  -0.00000  -0.00000  -0.00000  -0.00000  -0.00000  -0.00003  -0.00003