   2    2    1    1
  1.9307353e+02   3.8461566e-10   3.8461254e-10   1.3051858e-09   0.0000000e+00
            0.000000e+00
  CAR
 DOS and projected DOS file by LOBSTER. Energy is shifted such that the Fermi level lies at 0 eV. 
      7.73988808     -36.30415597  1001       0.73688507       1.00000000
-37.04104   0.00000   0.01657
-36.99700   0.59745   0.04288
-36.95295   1.33585   0.10172
-36.90891   2.71751   0.22141
-36.86486   5.02987   0.44294
-36.82082   8.47082   0.81603
-36.77678  12.98023   1.38773
-36.73273  18.09806   2.18485
-36.68869  22.96022   3.19611
-36.64464  26.50411   4.36345
-36.60060  27.83809   5.58956
-36.55656  26.60409   6.76131
-36.51251  23.13297   7.78018
-36.46847  18.30109   8.58623
-36.42442  13.17260   9.16641
-36.38038   8.62581   9.54632
-36.33634   5.13860   9.77265
-36.29229   2.78476   9.89530
-36.24825   1.37280   9.95576
-36.20420   0.61557   9.98287
-36.16016   0.25107   9.99393
-36.11612   0.09313   9.99803
-36.07207   0.03142   9.99942
-36.02803   0.00964   9.99984
-35.98398   0.00269   9.99996
-35.93994   0.00068   9.99999
-35.89590   0.00016  10.00000
-35.85185   0.00003  10.00000
-35.80781   0.00001  10.00000
-35.76376   0.00000  10.00000
-35.71972   0.00000  10.00000
-35.67568   0.00000  10.00000
-35.63163   0.00000  10.00000
-35.58759   0.00000  10.00000
-35.54354   0.00000  10.00000
-35.49950   0.00000  10.00000
-35.45546   0.00000  10.00000
-35.41141   0.00000  10.00000
-35.36737   0.00000  10.00000
-35.32332   0.00000  10.00000
-35.27928   0.00000  10.00000
-35.23524   0.00000  10.00000
-35.19119   0.00000  10.00000
-35.14715   0.00000  10.00000
-35.10310   0.00000  10.00000
-35.05906   0.00000  10.00000
-35.01502   0.00000  10.00000
-34.97097   0.00000  10.00000
-34.92693   0.00000  10.00000
-34.88288   0.00000  10.00000
-34.83884   0.00000  10.00000
-34.79479   0.00000  10.00000
-34.75075   0.00000  10.00000
-34.70671   0.00000  10.00000
-34.66266   0.00000  10.00000
-34.61862   0.00000  10.00000
-34.57457   0.00000  10.00000
-34.53053   0.00000  10.00000
-34.48649   0.00000  10.00000
-34.44244   0.00000  10.00000
-34.39840   0.00000  10.00000
-34.35435   0.00000  10.00000
-34.31031   0.00000  10.00000
-34.26627   0.00000  10.00000
-34.22222   0.00000  10.00000
-34.17818   0.00000  10.00000
-34.13413   0.00000  10.00000
-34.09009   0.00000  10.00000
-34.04605   0.00000  10.00000
-34.00200   0.00000  10.00000
-33.95796   0.00000  10.00000
-33.91391   0.00000  10.00000
-33.86987   0.00000  10.00000
-33.82583   0.00000  10.00000
-33.78178   0.00000  10.00000
-33.73774   0.00000  10.00000
-33.69369   0.00000  10.00000
-33.64965   0.00000  10.00000
-33.60561   0.00000  10.00000
-33.56156   0.00000  10.00000
-33.51752   0.00000  10.00000
-33.47347   0.00000  10.00000
-33.42943   0.00000  10.00000
-33.38539   0.00000  10.00000
-33.34134   0.00000  10.00000
-33.29730   0.00000  10.00000
-33.25325   0.00000  10.00000
-33.20921   0.00000  10.00000
-33.16517   0.00000  10.00000
-33.12112   0.00000  10.00000
-33.07708   0.00000  10.00000
-33.03303   0.00000  10.00000
-32.98899   0.00000  10.00000
-32.94494   0.00000  10.00000
-32.90090   0.00000  10.00000
-32.85686   0.00000  10.00000
-32.81281   0.00000  10.00000
-32.76877   0.00000  10.00000
-32.72472   0.00000  10.00000
-32.68068   0.00000  10.00000
-32.63664   0.00000  10.00000
-32.59259   0.00000  10.00000
-32.54855   0.00000  10.00000
-32.50450   0.00000  10.00000
-32.46046   0.00000  10.00000
-32.41642   0.00000  10.00000
-32.37237   0.00000  10.00000
-32.32833   0.00000  10.00000
-32.28428   0.00000  10.00000
-32.24024   0.00000  10.00000
-32.19620   0.00000  10.00000
-32.15215   0.00000  10.00000
-32.10811   0.00000  10.00000
-32.06406   0.00000  10.00000
-32.02002   0.00000  10.00000
-31.97598   0.00000  10.00000
-31.93193   0.00000  10.00000
-31.88789   0.00000  10.00000
-31.84384   0.00000  10.00000
-31.79980   0.00000  10.00000
-31.75576   0.00000  10.00000
-31.71171   0.00000  10.00000
-31.66767   0.00000  10.00000
-31.62362   0.00000  10.00000
-31.57958   0.00000  10.00000
-31.53554   0.00000  10.00000
-31.49149   0.00000  10.00000
-31.44745   0.00000  10.00000
-31.40340   0.00000  10.00000
-31.35936   0.00000  10.00000
-31.31532   0.00000  10.00000
-31.27127   0.00000  10.00000
-31.22723   0.00000  10.00000
-31.18318   0.00000  10.00000
-31.13914   0.00000  10.00000
-31.09510   0.00000  10.00000
-31.05105   0.00000  10.00000
-31.00701   0.00000  10.00000
-30.96296   0.00000  10.00000
-30.91892   0.00000  10.00000
-30.87487   0.00000  10.00000
-30.83083   0.00000  10.00000
-30.78679   0.00000  10.00000
-30.74274   0.00000  10.00000
-30.69870   0.00000  10.00000
-30.65465   0.00000  10.00000
-30.61061   0.00000  10.00000
-30.56657   0.00000  10.00000
-30.52252   0.00000  10.00000
-30.47848   0.00000  10.00000
-30.43443   0.00000  10.00000
-30.39039   0.00000  10.00000
-30.34635   0.00000  10.00000
-30.30230   0.00000  10.00000
-30.25826   0.00000  10.00000
-30.21421   0.00000  10.00000
-30.17017   0.00000  10.00000
-30.12613   0.00000  10.00000
-30.08208   0.00000  10.00000
-30.03804   0.00000  10.00000
-29.99399   0.00000  10.00000
-29.94995   0.00000  10.00000
-29.90591   0.00000  10.00000
-29.86186   0.00000  10.00000
-29.81782   0.00000  10.00000
-29.77377   0.00000  10.00000
-29.72973   0.00000  10.00000
-29.68569   0.00000  10.00000
-29.64164   0.00000  10.00000
-29.59760   0.00000  10.00000
-29.55355   0.00000  10.00000
-29.50951   0.00000  10.00000
-29.46547   0.00000  10.00000
-29.42142   0.00000  10.00000
-29.37738   0.00000  10.00000
-29.33333   0.00000  10.00000
-29.28929   0.00000  10.00000
-29.24525   0.00000  10.00000
-29.20120   0.00000  10.00000
-29.15716   0.00000  10.00000
-29.11311   0.00000  10.00000
-29.06907   0.00000  10.00000
-29.02503   0.00000  10.00000
-28.98098   0.00000  10.00000
-28.93694   0.00000  10.00000
-28.89289   0.00000  10.00000
-28.84885   0.00000  10.00000
-28.80480   0.00000  10.00000
-28.76076   0.00000  10.00000
-28.71672   0.00000  10.00000
-28.67267   0.00000  10.00000
-28.62863   0.00000  10.00000
-28.58458   0.00000  10.00000
-28.54054   0.00000  10.00000
-28.49650   0.00000  10.00000
-28.45245   0.00000  10.00000
-28.40841   0.00000  10.00000
-28.36436   0.00000  10.00000
-28.32032   0.00000  10.00000
-28.27628   0.00000  10.00000
-28.23223   0.00000  10.00000
-28.18819   0.00000  10.00000
-28.14414   0.00000  10.00000
-28.10010   0.00000  10.00000
-28.05606   0.00000  10.00000
-28.01201   0.00000  10.00000
-27.96797   0.00000  10.00000
-27.92392   0.00000  10.00000
-27.87988   0.00000  10.00000
-27.83584   0.00000  10.00000
-27.79179   0.00000  10.00000
-27.74775   0.00000  10.00000
-27.70370   0.00000  10.00000
-27.65966   0.00000  10.00000
-27.61562   0.00000  10.00000
-27.57157   0.00000  10.00000
-27.52753   0.00000  10.00000
-27.48348   0.00000  10.00000
-27.43944   0.00000  10.00000
-27.39540   0.00000  10.00000
-27.35135   0.00000  10.00000
-27.30731   0.00000  10.00000
-27.26326   0.00000  10.00000
-27.21922   0.00000  10.00000
-27.17518   0.00000  10.00000
-27.13113   0.00000  10.00000
-27.08709   0.00000  10.00000
-27.04304   0.00000  10.00000
-26.99900   0.00000  10.00000
-26.95495   0.00000  10.00000
-26.91091   0.00000  10.00000
-26.86687   0.00000  10.00000
-26.82282   0.00000  10.00000
-26.77878   0.00000  10.00000
-26.73473   0.00000  10.00000
-26.69069   0.00000  10.00000
-26.64665   0.00000  10.00000
-26.60260   0.00000  10.00000
-26.55856   0.00000  10.00000
-26.51451   0.00000  10.00000
-26.47047   0.00000  10.00000
-26.42643   0.00000  10.00000
-26.38238   0.00000  10.00000
-26.33834   0.00000  10.00000
-26.29429   0.00000  10.00000
-26.25025   0.00000  10.00000
-26.20621   0.00000  10.00000
-26.16216   0.00000  10.00000
-26.11812   0.00000  10.00000
-26.07407   0.00000  10.00000
-26.03003   0.00000  10.00000
-25.98599   0.00000  10.00000
-25.94194   0.00000  10.00000
-25.89790   0.00000  10.00000
-25.85385   0.00000  10.00000
-25.80981   0.00000  10.00000
-25.76577   0.00000  10.00000
-25.72172   0.00000  10.00000
-25.67768   0.00000  10.00000
-25.63363   0.00000  10.00000
-25.58959   0.00000  10.00000
-25.54555   0.00000  10.00000
-25.50150   0.00000  10.00000
-25.45746   0.00000  10.00000
-25.41341   0.00000  10.00000
-25.36937   0.00000  10.00000
-25.32533   0.00000  10.00000
-25.28128   0.00000  10.00000
-25.23724   0.00000  10.00000
-25.19319   0.00000  10.00000
-25.14915   0.00000  10.00000
-25.10511   0.00000  10.00000
-25.06106   0.00000  10.00000
-25.01702   0.00000  10.00000
-24.97297   0.00000  10.00000
-24.92893   0.00000  10.00000
-24.88488   0.00000  10.00000
-24.84084   0.00000  10.00000
-24.79680   0.00000  10.00000
-24.75275   0.00000  10.00000
-24.70871   0.00000  10.00000
-24.66466   0.00000  10.00000
-24.62062   0.00000  10.00000
-24.57658   0.00000  10.00000
-24.53253   0.00000  10.00000
-24.48849   0.00000  10.00000
-24.44444   0.00000  10.00000
-24.40040   0.00000  10.00000
-24.35636   0.00000  10.00000
-24.31231   0.00000  10.00000
-24.26827   0.00000  10.00000
-24.22422   0.00000  10.00000
-24.18018   0.00000  10.00000
-24.13614   0.00000  10.00000
-24.09209   0.00000  10.00000
-24.04805   0.00000  10.00000
-24.00400   0.00000  10.00000
-23.95996   0.00000  10.00000
-23.91592   0.00000  10.00000
-23.87187   0.00000  10.00000
-23.82783   0.00000  10.00000
-23.78378   0.00000  10.00000
-23.73974   0.00000  10.00000
-23.69570   0.00000  10.00000
-23.65165   0.00000  10.00000
-23.60761   0.00000  10.00000
-23.56356   0.00000  10.00000
-23.51952   0.00000  10.00000
-23.47548   0.00000  10.00000
-23.43143   0.00000  10.00000
-23.38739   0.00000  10.00000
-23.34334   0.00000  10.00000
-23.29930   0.00000  10.00000
-23.25526   0.00000  10.00000
-23.21121   0.00000  10.00000
-23.16717   0.00000  10.00000
-23.12312   0.00000  10.00000
-23.07908   0.00000  10.00000
-23.03504   0.00000  10.00000
-22.99099   0.00000  10.00000
-22.94695   0.00000  10.00000
-22.90290   0.00000  10.00000
-22.85886   0.00000  10.00000
-22.81481   0.00000  10.00000
-22.77077   0.00000  10.00000
-22.72673   0.00000  10.00000
-22.68268   0.00000  10.00000
-22.63864   0.00000  10.00000
-22.59459   0.00000  10.00000
-22.55055   0.00000  10.00000
-22.50651   0.00000  10.00000
-22.46246   0.00000  10.00000
-22.41842   0.00000  10.00000
-22.37437   0.00000  10.00000
-22.33033   0.00000  10.00000
-22.28629   0.00000  10.00000
-22.24224   0.00000  10.00000
-22.19820   0.00000  10.00000
-22.15415   0.00000  10.00000
-22.11011   0.00000  10.00000
-22.06607   0.00000  10.00000
-22.02202   0.00000  10.00000
-21.97798   0.00000  10.00000
-21.93393   0.00000  10.00000
-21.88989   0.00000  10.00000
-21.84585   0.00000  10.00000
-21.80180   0.00000  10.00000
-21.75776   0.00000  10.00000
-21.71371   0.00000  10.00000
-21.66967   0.00000  10.00000
-21.62563   0.00000  10.00000
-21.58158   0.00000  10.00000
-21.53754   0.00000  10.00000
-21.49349   0.00000  10.00000
-21.44945   0.00000  10.00000
-21.40541   0.00000  10.00000
-21.36136   0.00000  10.00000
-21.31732   0.00000  10.00000
-21.27327   0.00000  10.00000
-21.22923   0.00000  10.00000
-21.18519   0.00000  10.00000
-21.14114   0.00000  10.00000
-21.09710   0.00000  10.00000
-21.05305   0.00000  10.00000
-21.00901   0.00000  10.00000
-20.96496   0.00000  10.00000
-20.92092   0.00000  10.00000
-20.87688   0.00000  10.00000
-20.83283   0.00000  10.00000
-20.78879   0.00000  10.00000
-20.74474   0.00000  10.00000
-20.70070   0.00000  10.00000
-20.65666   0.00000  10.00000
-20.61261   0.00000  10.00000
-20.56857   0.00000  10.00000
-20.52452   0.00000  10.00000
-20.48048   0.00000  10.00000
-20.43644   0.00000  10.00000
-20.39239   0.00000  10.00000
-20.34835   0.00000  10.00000
-20.30430   0.00000  10.00000
-20.26026   0.00000  10.00000
-20.21622   0.00000  10.00000
-20.17217   0.00000  10.00000
-20.12813   0.00000  10.00000
-20.08408   0.00000  10.00000
-20.04004   0.00000  10.00000
-19.99600   0.00000  10.00000
-19.95195   0.00000  10.00000
-19.90791   0.00000  10.00000
-19.86386   0.00000  10.00000
-19.81982   0.00000  10.00000
-19.77578   0.00000  10.00000
-19.73173   0.00000  10.00000
-19.68769   0.00000  10.00000
-19.64364   0.00000  10.00000
-19.59960   0.00000  10.00000
-19.55556   0.00000  10.00000
-19.51151   0.00000  10.00000
-19.46747   0.00000  10.00000
-19.42342   0.00000  10.00000
-19.37938   0.00000  10.00000
-19.33534   0.00000  10.00000
-19.29129   0.00000  10.00000
-19.24725   0.00000  10.00000
-19.20320   0.00000  10.00000
-19.15916   0.00000  10.00000
-19.11512   0.00000  10.00000
-19.07107   0.00000  10.00000
-19.02703   0.00000  10.00000
-18.98298   0.00000  10.00000
-18.93894   0.00000  10.00000
-18.89489   0.00000  10.00000
-18.85085   0.00000  10.00000
-18.80681   0.00000  10.00000
-18.76276   0.00000  10.00000
-18.71872   0.00000  10.00000
-18.67467   0.00000  10.00000
-18.63063   0.00000  10.00000
-18.58659   0.00000  10.00000
-18.54254   0.00000  10.00000
-18.49850   0.00000  10.00000
-18.45445   0.00000  10.00000
-18.41041   0.00000  10.00000
-18.36637   0.00000  10.00000
-18.32232   0.00000  10.00000
-18.27828   0.00000  10.00000
-18.23423   0.00000  10.00000
-18.19019   0.00001  10.00000
-18.14615   0.00004  10.00000
-18.10210   0.00017  10.00001
-18.05806   0.00073  10.00004
-18.01401   0.00281  10.00017
-17.96997   0.00985  10.00060
-17.92593   0.03150  10.00199
-17.88188   0.09176  10.00603
-17.83784   0.24369  10.01676
-17.79379   0.59002  10.04275
-17.74975   1.30264  10.10012
-17.70571   2.62294  10.21565
-17.66166   4.81775  10.42784
-17.61762   8.07385  10.78345
-17.57357  12.34770  11.32729
-17.52953  17.23672  12.08646
-17.48549  21.96761  13.05401
-17.44144  25.56647  14.18006
-17.39740  27.17823  15.37709
-17.35335  26.39606  16.53968
-17.30931  23.42776  17.57154
-17.26527  19.00656  18.40866
-17.22122  14.09818  19.02960
-17.17718   9.56341  19.45081
-17.13313   5.93406  19.71217
-17.08909   3.36877  19.86055
-17.04505   1.75007  19.93763
-17.00100   0.83210  19.97428
-16.95696   0.36214  19.99023
-16.91291   0.14428  19.99658
-16.86887   0.05263  19.99890
-16.82482   0.01757  19.99968
-16.78078   0.00537  19.99991
-16.73674   0.00150  19.99998
-16.69269   0.00038  19.99999
-16.64865   0.00009  20.00000
-16.60460   0.00002  20.00000
-16.56056   0.00000  20.00000
-16.51652   0.00000  20.00000
-16.47247   0.00000  20.00000
-16.42843   0.00000  20.00000
-16.38438   0.00000  20.00000
-16.34034   0.00000  20.00000
-16.29630   0.00000  20.00000
-16.25225   0.00000  20.00000
-16.20821   0.00000  20.00000
-16.16416   0.00000  20.00000
-16.12012  -0.00000  20.00000
-16.07608   0.00000  20.00000
-16.03203   0.00000  20.00000
-15.98799   0.00000  20.00000
-15.94394   0.00000  20.00000
-15.89990   0.00000  20.00000
-15.85586   0.00000  20.00000
-15.81181   0.00000  20.00000
-15.76777   0.00000  20.00000
-15.72372   0.00000  20.00000
-15.67968   0.00000  20.00000
-15.63564   0.00000  20.00000
-15.59159   0.00000  20.00000
-15.54755   0.00000  20.00000
-15.50350   0.00000  20.00000
-15.45946   0.00000  20.00000
-15.41542   0.00000  20.00000
-15.37137   0.00000  20.00000
-15.32733   0.00000  20.00000
-15.28328   0.00000  20.00000
-15.23924   0.00000  20.00000
-15.19520   0.00000  20.00000
-15.15115   0.00000  20.00000
-15.10711   0.00000  20.00000
-15.06306   0.00000  20.00000
-15.01902   0.00000  20.00000
-14.97497   0.00000  20.00000
-14.93093   0.00000  20.00000
-14.88689   0.00000  20.00000
-14.84284   0.00000  20.00000
-14.79880   0.00000  20.00000
-14.75475   0.00000  20.00000
-14.71071   0.00000  20.00000
-14.66667   0.00000  20.00000
-14.62262   0.00000  20.00000
-14.57858   0.00000  20.00000
-14.53453   0.00000  20.00000
-14.49049   0.00000  20.00000
-14.44645   0.00000  20.00000
-14.40240   0.00000  20.00000
-14.35836   0.00000  20.00000
-14.31431   0.00000  20.00000
-14.27027   0.00000  20.00000
-14.22623   0.00000  20.00000
-14.18218   0.00000  20.00000
-14.13814   0.00000  20.00000
-14.09409   0.00000  20.00000
-14.05005   0.00000  20.00000
-14.00601   0.00000  20.00000
-13.96196   0.00000  20.00000
-13.91792   0.00000  20.00000
-13.87387   0.00000  20.00000
-13.82983   0.00000  20.00000
-13.78579   0.00000  20.00000
-13.74174   0.00000  20.00000
-13.69770   0.00000  20.00000
-13.65365   0.00000  20.00000
-13.60961   0.00000  20.00000
-13.56557   0.00000  20.00000
-13.52152   0.00000  20.00000
-13.47748   0.00000  20.00000
-13.43343   0.00000  20.00000
-13.38939   0.00000  20.00000
-13.34535   0.00000  20.00000
-13.30130   0.00000  20.00000
-13.25726   0.00000  20.00000
-13.21321   0.00001  20.00000
-13.16917   0.00002  20.00000
-13.12513   0.00007  20.00000
-13.08108   0.00023  20.00001
-13.03704   0.00068  20.00004
-12.99299   0.00183  20.00012
-12.94895   0.00456  20.00033
-12.90490   0.01038  20.00078
-12.86086   0.02169  20.00174
-12.81682   0.04165  20.00357
-12.77277   0.07369  20.00682
-12.72873   0.12047  20.01212
-12.68468   0.18254  20.02016
-12.64064   0.25748  20.03150
-12.59660   0.33978  20.04647
-12.55255   0.42206  20.06506
-12.50851   0.49703  20.08695
-12.46446   0.55938  20.11159
-12.42042   0.60693  20.13832
-12.37638   0.64042  20.16653
-12.33233   0.66253  20.19571
-12.28829   0.67659  20.22551
-12.24424   0.68566  20.25571
-12.20020   0.69208  20.28619
-12.15616   0.69743  20.31690
-12.11211   0.70257  20.34785
-12.06807   0.70771  20.37902
-12.02402   0.71280  20.41041
-11.97998   0.71790  20.44203
-11.93594   0.72344  20.47390
-11.89189   0.72996  20.50605
-11.84785   0.73753  20.53853
-11.80380   0.74562  20.57137
-11.75976   0.75355  20.60456
-11.71572   0.76134  20.63809
-11.67167   0.76991  20.67200
-11.62763   0.78047  20.70638
-11.58358   0.79345  20.74132
-11.53954   0.80822  20.77692
-11.49550   0.82380  20.81320
-11.45145   0.84022  20.85021
-11.40741   0.85900  20.88804
-11.36336   0.88244  20.92691
-11.31932   0.91228  20.96709
-11.27528   0.94889  21.00888
-11.23123   0.99141  21.05255
-11.18719   1.03813  21.09827
-11.14314   1.08624  21.14612
-11.09910   1.13113  21.19594
-11.05506   1.16635  21.24731
-11.01101   1.18495  21.29950
-10.96697   1.18184  21.35155
-10.92292   1.15583  21.40246
-10.87888   1.11014  21.45135
-10.83483   1.05123  21.49765
-10.79079   0.98667  21.54111
-10.74675   0.92311  21.58177
-10.70270   0.86499  21.61987
-10.65866   0.81427  21.65573
-10.61461   0.77106  21.68969
-10.57057   0.73444  21.72204
-10.52653   0.70308  21.75300
-10.48248   0.67553  21.78276
-10.43844   0.65010  21.81139
-10.39439   0.62471  21.83890
-10.35035   0.59671  21.86519
-10.30631   0.56307  21.88999
-10.26226   0.52083  21.91293
-10.21822   0.46809  21.93354
-10.17417   0.40502  21.95138
-10.13013   0.33438  21.96611
-10.08609   0.26129  21.97762
-10.04204   0.19189  21.98607
 -9.99800   0.13166  21.99187
 -9.95395   0.08398  21.99557
 -9.90991   0.04960  21.99775
 -9.86587   0.02705  21.99894
 -9.82182   0.01358  21.99954
 -9.77778   0.00630  21.99982
 -9.73373   0.00278  21.99994
 -9.68969   0.00144  22.00000
 -9.64565   0.00153  22.00007
 -9.60160   0.00311  22.00021
 -9.55756   0.00708  22.00052
 -9.51351   0.01527  22.00119
 -9.46947   0.03048  22.00253
 -9.42543   0.05620  22.00501
 -9.38138   0.09587  22.00923
 -9.33734   0.15169  22.01591
 -9.29329   0.22326  22.02575
 -9.24925   0.30681  22.03926
 -9.20521   0.39564  22.05669
 -9.16116   0.48195  22.07791
 -9.11712   0.55940  22.10255
 -9.07307   0.62515  22.13008
 -9.02903   0.68008  22.16004
 -8.98498   0.72710  22.19206
 -8.94094   0.76887  22.22593
 -8.89690   0.80638  22.26144
 -8.85285   0.83963  22.29842
 -8.80881   0.86949  22.33672
 -8.76476   0.89914  22.37632
 -8.72072   0.93359  22.41744
 -8.67668   0.97747  22.46049
 -8.63263   1.03285  22.50598
 -8.58859   1.09875  22.55438
 -8.54454   1.17294  22.60604
 -8.50050   1.25441  22.66129
 -8.45646   1.34434  22.72050
 -8.41241   1.44404  22.78410
 -8.36837   1.55102  22.85241
 -8.32432   1.65598  22.92535
 -8.28028   1.74402  23.00216
 -8.23624   1.80007  23.08144
 -8.19219   1.81558  23.16141
 -8.14815   1.79204  23.24034
 -8.10410   1.73930  23.31694
 -8.06006   1.67041  23.39052
 -8.01602   1.59658  23.46084
 -7.97197   1.52460  23.52799
 -7.92793   1.45662  23.59214
 -7.88388   1.39081  23.65340
 -7.83984   1.32194  23.71162
 -7.79580   1.24239  23.76634
 -7.75175   1.14412  23.81673
 -7.70771   1.02179  23.86174
 -7.66366   0.87575  23.90031
 -7.61962   0.71340  23.93173
 -7.57558   0.54770  23.95585
 -7.53153   0.39352  23.97318
 -7.48749   0.26309  23.98477
 -7.44344   0.16293  23.99195
 -7.39940   0.09312  23.99605
 -7.35536   0.04898  23.99821
 -7.31131   0.02366  23.99925
 -7.26727   0.01048  23.99971
 -7.22322   0.00425  23.99990
 -7.17918   0.00157  23.99997
 -7.13514   0.00053  23.99999
 -7.09109   0.00016  24.00000
 -7.04705   0.00005  24.00000
 -7.00300   0.00001  24.00000
 -6.95896   0.00000  24.00000
 -6.91491   0.00000  24.00000
 -6.87087   0.00000  24.00000
 -6.82683   0.00000  24.00000
 -6.78278   0.00000  24.00000
 -6.73874   0.00000  24.00000
 -6.69469   0.00000  24.00000
 -6.65065   0.00000  24.00000
 -6.60661   0.00000  24.00000
 -6.56256   0.00000  24.00000
 -6.51852   0.00000  24.00000
 -6.47447  -0.00000  24.00000
 -6.43043   0.00000  24.00000
 -6.38639   0.00000  24.00000
 -6.34234   0.00000  24.00000
 -6.29830   0.00000  24.00000
 -6.25425   0.00000  24.00000
 -6.21021   0.00000  24.00000
 -6.16617   0.00000  24.00000
 -6.12212   0.00000  24.00000
 -6.07808   0.00000  24.00000
 -6.03403   0.00000  24.00000
 -5.98999   0.00000  24.00000
 -5.94595   0.00000  24.00000
 -5.90190   0.00000  24.00000
 -5.85786   0.00000  24.00000
 -5.81381   0.00000  24.00000
 -5.76977   0.00000  24.00000
 -5.72573   0.00000  24.00000
 -5.68168   0.00000  24.00000
 -5.63764   0.00000  24.00000
 -5.59359   0.00000  24.00000
 -5.54955   0.00000  24.00000
 -5.50551   0.00000  24.00000
 -5.46146   0.00000  24.00000
 -5.41742   0.00000  24.00000
 -5.37337   0.00000  24.00000
 -5.32933   0.00000  24.00000
 -5.28529   0.00000  24.00000
 -5.24124   0.00000  24.00000
 -5.19720   0.00000  24.00000
 -5.15315   0.00000  24.00000
 -5.10911   0.00001  24.00000
 -5.06507   0.00004  24.00000
 -5.02102   0.00012  24.00001
 -4.97698   0.00037  24.00002
 -4.93293   0.00103  24.00007
 -4.88889   0.00264  24.00018
 -4.84484   0.00621  24.00046
 -4.80080   0.01343  24.00105
 -4.75676   0.02669  24.00223
 -4.71271   0.04885  24.00438
 -4.66867   0.08254  24.00801
 -4.62462   0.12915  24.01370
 -4.58058   0.18787  24.02198
 -4.53654   0.25526  24.03322
 -4.49249   0.32586  24.04757
 -4.44845   0.39351  24.06490
 -4.40440   0.45311  24.08486
 -4.36036   0.50184  24.10696
 -4.31632   0.53950  24.13072
 -4.27227   0.56789  24.15574
 -4.22823   0.58964  24.18171
 -4.18418   0.60739  24.20846
 -4.14014   0.62345  24.23592
 -4.09610   0.63995  24.26410
 -4.05205   0.65915  24.29313
 -4.00801   0.68386  24.32325
 -3.96396   0.71814  24.35488
 -3.91992   0.76857  24.38874
 -3.87588   0.84537  24.42597
 -3.83183   0.96175  24.46833
 -3.78779   1.12997  24.51810
 -3.74374   1.35450  24.57776
 -3.69970   1.62517  24.64933
 -3.65566   1.91446  24.73365
 -3.61161   2.18218  24.82977
 -3.56757   2.38701  24.93490
 -3.52352   2.50034  25.04503
 -3.47948   2.51608  25.15584
 -3.43544   2.45098  25.26379
 -3.39139   2.33535  25.36665
 -3.34735   2.19898  25.46351
 -3.30330   2.05998  25.55424
 -3.25926   1.92221  25.63890
 -3.21522   1.78127  25.71735
 -3.17117   1.63399  25.78932
 -3.12713   1.48507  25.85473
 -3.08308   1.34757  25.91408
 -3.03904   1.23784  25.96860
 -2.99499   1.16854  26.02007
 -2.95095   1.14346  26.07043
 -2.90691   1.15656  26.12137
 -2.86286   1.19508  26.17400
 -2.81882   1.24494  26.22884
 -2.77477   1.29527  26.28589
 -2.73073   1.33988  26.34490
 -2.68669   1.37576  26.40549
 -2.64264   1.40060  26.46718
 -2.59860   1.41225  26.52938
 -2.55455   1.41071  26.59152
 -2.51051   1.40097  26.65322
 -2.46647   1.39331  26.71459
 -2.42242   1.39947  26.77623
 -2.37838   1.42626  26.83904
 -2.33433   1.47079  26.90382
 -2.29029   1.52092  26.97081
 -2.24625   1.56117  27.03957
 -2.20220   1.58102  27.10921
 -2.15816   1.58092  27.17884
 -2.11411   1.57293  27.24811
 -2.07007   1.57563  27.31751
 -2.02603   1.60589  27.38824
 -1.98198   1.67099  27.46184
 -1.93794   1.76486  27.53957
 -1.89389   1.87002  27.62193
 -1.84985   1.96482  27.70847
 -1.80581   2.03266  27.79800
 -1.76176   2.06865  27.88911
 -1.71772   2.08002  27.98072
 -1.67367   2.08007  28.07234
 -1.62963   2.07961  28.16393
 -1.58559   2.08129  28.25560
 -1.54154   2.08024  28.34722
 -1.49750   2.06986  28.43839
 -1.45345   2.04824  28.52860
 -1.40941   2.02099  28.61761
 -1.36537   1.99914  28.70566
 -1.32132   1.99395  28.79348
 -1.27728   2.01145  28.88208
 -1.23323   2.04861  28.97231
 -1.18919   2.09187  29.06444
 -1.14515   2.11865  29.15775
 -1.10110   2.10257  29.25036
 -1.05706   2.02217  29.33942
 -1.01301   1.87000  29.42179
 -0.96897   1.65745  29.49479
 -0.92492   1.41194  29.55698
 -0.88088   1.16737  29.60839
 -0.83684   0.95271  29.65035
 -0.79279   0.78411  29.68489
 -0.74875   0.66321  29.71410
 -0.70470   0.58082  29.73968
 -0.66066   0.52333  29.76273
 -0.61662   0.47872  29.78381
 -0.57257   0.44027  29.80320
 -0.52853   0.40690  29.82113
 -0.48448   0.38104  29.83791
 -0.44044   0.36559  29.85401
 -0.39640   0.36186  29.86995
 -0.35235   0.36942  29.88622
 -0.30831   0.38703  29.90326
 -0.26426   0.41405  29.92150
 -0.22022   0.45117  29.94137
 -0.17618   0.50015  29.96340
 -0.13213   0.56271  29.98819
 -0.08809   0.63891  30.01633
 -0.04404   0.72595  30.04830
  0.00000   0.81809  30.08433
  0.04404   0.90794  30.12432
  0.08809   0.98811  30.16784
  0.13213   1.05260  30.21420
  0.17618   1.09723  30.26253
  0.22022   1.11978  30.31185
  0.26426   1.11994  30.36118
  0.30831   1.09953  30.40960
  0.35235   1.06224  30.45639
  0.39640   1.01304  30.50101
  0.44044   0.95726  30.54317
  0.48448   0.89977  30.58280
  0.52853   0.84452  30.61999
  0.57257   0.79450  30.65499
  0.61662   0.75198  30.68811
  0.66066   0.71892  30.71977
  0.70470   0.69716  30.75048
  0.74875   0.68821  30.78079
  0.79279   0.69241  30.81128
  0.83684   0.70817  30.84247
  0.88088   0.73159  30.87470
  0.92492   0.75707  30.90804
  0.96897   0.77882  30.94234
  1.01301   0.79266  30.97726
  1.05706   0.79775  31.01239
  1.10110   0.79755  31.04752
  1.14515   0.79982  31.08275
  1.18919   0.81575  31.11868
  1.23323   0.85817  31.15647
  1.27728   0.93898  31.19783
  1.32132   1.06582  31.24477
  1.36537   1.23857  31.29932
  1.40941   1.44677  31.36305
  1.45345   1.66931  31.43657
  1.49750   1.87736  31.51925
  1.54154   2.04036  31.60912
  1.58559   2.13367  31.70310
  1.62963   2.14548  31.79759
  1.67367   2.08040  31.88922
  1.71772   1.95830  31.97547
  1.76176   1.80895  32.05515
  1.80581   1.66503  32.12848
  1.84985   1.55626  32.19702
  1.89389   1.50609  32.26336
  1.93794   1.53015  32.33075
  1.98198   1.63461  32.40275
  2.02603   1.81343  32.48262
  2.07007   2.04534  32.57270
  2.11411   2.29385  32.67373
  2.15816   2.51276  32.78441
  2.20220   2.65738  32.90145
  2.24625   2.69781  33.02027
  2.29029   2.62821  33.13603
  2.33433   2.46737  33.24470
  2.37838   2.25013  33.34380
  2.42242   2.01411  33.43251
  2.46647   1.78842  33.51128
  2.51051   1.58898  33.58127
  2.55455   1.42087  33.64385
  2.59860   1.28426  33.70041
  2.64264   1.17957  33.75237
  2.68669   1.10930  33.80123
  2.73073   1.07642  33.84863
  2.77477   1.08143  33.89627
  2.81882   1.11999  33.94559
  2.86286   1.18248  33.99768
  2.90691   1.25555  34.05297
  2.95095   1.32531  34.11135
  2.99499   1.38164  34.17220
  3.03904   1.42244  34.23485
  3.08308   1.45584  34.29897
  3.12713   1.49831  34.36496
  3.17117   1.56798  34.43402
  3.21522   1.67550  34.50782
  3.25926   1.81739  34.58786
  3.30330   1.97641  34.67491
  3.34735   2.12935  34.76870
  3.39139   2.25743  34.86812
  3.43544   2.35256  34.97174
  3.47948   2.41585  35.07814
  3.52352   2.45052  35.18608
  3.56757   2.45522  35.29421
  3.61161   2.42218  35.40090
  3.65566   2.34079  35.50399
  3.69970   2.20309  35.60103
  3.74374   2.00806  35.68947
  3.78779   1.76320  35.76713
  3.83183   1.48382  35.83248
  3.87588   1.19066  35.88492
  3.91992   0.90642  35.92485
  3.96396   0.65147  35.95354
  4.00801   0.44008  35.97292
  4.05205   0.27828  35.98518
  4.09610   0.16413  35.99241
  4.14014   0.09001  35.99637
  4.18418   0.04576  35.99839
  4.22823   0.02152  35.99934
  4.27227   0.00934  35.99975
  4.31632   0.00373  35.99991
  4.36036   0.00137  35.99997
  4.40440   0.00046  35.99999
  4.44845   0.00014  36.00000
  4.49249   0.00004  36.00000
  4.53654   0.00001  36.00000
  4.58058   0.00000  36.00000
  4.62462   0.00000  36.00000
  4.66867   0.00000  36.00000
  4.71271   0.00000  36.00000
  4.75676   0.00000  36.00000
  4.80080   0.00000  36.00000
  4.84484   0.00000  36.00000
  4.88889   0.00000  36.00000
  4.93293   0.00000  36.00000
  4.97698   0.00000  36.00000
  5.02102   0.00000  36.00000
  5.06507   0.00000  36.00000
  5.10911   0.00000  36.00000
  5.15315   0.00000  36.00000
  5.19720   0.00000  36.00000
  5.24124   0.00000  36.00000
  5.28529   0.00000  36.00000
  5.32933   0.00000  36.00000
  5.37337   0.00000  36.00000
  5.41742   0.00000  36.00000
  5.46146   0.00000  36.00000
  5.50551   0.00000  36.00000
  5.54955   0.00000  36.00000
  5.59359   0.00000  36.00000
  5.63764   0.00000  36.00000
  5.68168   0.00000  36.00000
  5.72573   0.00000  36.00000
  5.76977   0.00000  36.00000
  5.81381   0.00000  36.00000
  5.85786   0.00000  36.00000
  5.90190   0.00000  36.00000
  5.94595   0.00000  36.00000
  5.98999   0.00000  36.00000
  6.03403   0.00000  36.00000
  6.07808   0.00000  36.00000
  6.12212   0.00000  36.00000
  6.16617   0.00000  36.00000
  6.21021   0.00000  36.00000
  6.25425   0.00000  36.00000
  6.29830   0.00000  36.00000
  6.34234   0.00000  36.00000
  6.38639   0.00000  36.00000
  6.43043   0.00000  36.00000
  6.47447   0.00000  36.00000