
     Program PWSCF v.6.1 (svn rev. 13369) starts on 20Sep2020 at 19:36:26 

     This program is part of the open-source Quantum ESPRESSO suite
     for quantum simulation of materials; please cite
         "P. Giannozzi et al., J. Phys.:Condens. Matter 21 395502 (2009);
          URL http://www.quantum-espresso.org", 
     in publications or presentations arising from this work. More details at
     http://www.quantum-espresso.org/quote

     Serial version
     Waiting for input...
     Reading input from standard input
Warning: card &IONS ignored
Warning: card / ignored
Warning: card &CELL ignored
Warning: card  CELL_DOFREE='2DXY' ignored
Warning: card / ignored

     Current dimensions of program PWSCF are:
     Max number of different atomic species (ntypx) = 10
     Max number of k-points (npk) =  40000
     Max angular momentum in pseudopotentials (lmaxx) =  3
               file Pb.UPF: wavefunction(s)  6S 6P 5D renormalized
               file Te.UPF: wavefunction(s)  5S 5P 4D renormalized

     G-vector sticks info
     --------------------
     sticks:   dense  smooth     PW     G-vecs:    dense   smooth      PW
     Sum        1057     697    213                87901    47741    7899


     Title: 
      PbTe_PZ                                                                   


     bravais-lattice index     =            0
     lattice parameter (alat)  =       7.3000  a.u.
     unit-cell volume          =    1302.9248 (a.u.)^3
     number of atoms/cell      =            2
     number of atomic types    =            2
     number of electrons       =        30.00
     number of Kohn-Sham states=           20
     kinetic-energy cutoff     =      42.0000  Ry
     charge density cutoff     =     252.0000  Ry
     convergence threshold     =      1.0E-08
     mixing beta               =       0.7000
     number of iterations used =            8  plain     mixing
     Exchange-correlation      =  SLA  PW   PBX  PBC ( 1  4  3  4 0 0)

     celldm(1)=   7.300000  celldm(2)=   0.000000  celldm(3)=   0.000000
     celldm(4)=   0.000000  celldm(5)=   0.000000  celldm(6)=   0.000000

     crystal axes: (cart. coord. in units of alat)
               a(1) = (   0.995641   0.000039   0.000000 )  
               a(2) = (   0.000039   0.995633   0.000000 )  
               a(3) = (   0.000000   0.000000   3.378690 )  

     reciprocal axes: (cart. coord. in units 2 pi/alat)
               b(1) = (  1.004378 -0.000039  0.000000 )  
               b(2) = ( -0.000039  1.004386  0.000000 )  
               b(3) = (  0.000000  0.000000  0.295973 )  


     PseudoPot. # 1 for Pb read from file:
     ./Pb.UPF
     MD5 check sum: 6028b95c5a6d19f69fe660acfe6aaac3
     Pseudo is Projector augmented-wave + core cor, Zval = 14.0
     Generated using "atomic" code by A. Dal Corso  v.6.3
     Shape of augmentation charge: PSQ
     Using radial grid of 1281 points,  6 beta functions with: 
                l(1) =   0
                l(2) =   0
                l(3) =   1
                l(4) =   1
                l(5) =   2
                l(6) =   2
     Q(r) pseudized with 0 coefficients 


     PseudoPot. # 2 for Te read from file:
     ./Te.UPF
     MD5 check sum: aca3ac145373e32ea850d75d9135ff66
     Pseudo is Projector augmented-wave + core cor, Zval = 16.0
     Generated using "atomic" code by A. Dal Corso  v.5.0.2 svn rev. 9415
     Shape of augmentation charge: PSQ
     Using radial grid of 1245 points,  6 beta functions with: 
                l(1) =   0
                l(2) =   0
                l(3) =   1
                l(4) =   1
                l(5) =   2
                l(6) =   2
     Q(r) pseudized with 0 coefficients 


     atomic species   valence    mass     pseudopotential
        Pb            14.00   207.20000     Pb( 1.00)
        Te            16.00   127.60000     Te( 1.00)

     No symmetry found



   Cartesian axes

     site n.     atom                  positions (alat units)
         1           Pb  tau(   1) = (   0.0012479   0.0026000   0.2031259  )
         2           Te  tau(   2) = (   0.4985109   0.4992393  -0.1693390  )

     number of k points=   400

     Number of k-points >= 100: set verbosity='high' to print them.

     Dense  grid:    87901 G-vectors     FFT dimensions: (  40,  40, 125)

     Smooth grid:    47741 G-vectors     FFT dimensions: (  30,  30, 108)

     Estimated max dynamical RAM per process >     801.00MB

     Check: negative/imaginary core charge=   -0.000012    0.000000

     Initial potential from superposition of free atoms

     starting charge   29.99743, renormalised to   30.00000

     negative rho (up, down):  5.016E-05 0.000E+00
     Starting wfc are   18 randomized atomic wfcs +    2 random wfc

     total cpu time spent up to now is       53.7 secs

     per-process dynamical memory:   808.4 Mb

     Self-consistent Calculation

     iteration #  1     ecut=    42.00 Ry     beta=0.70
     Davidson diagonalization with overlap
     ethr =  1.00E-02,  avg # of iterations =  6.3

     Threshold (ethr) on eigenvalues was too large:
     Diagonalizing with lowered threshold

     Davidson diagonalization with overlap
     ethr =  3.16E-04,  avg # of iterations =  3.2

     negative rho (up, down):  6.164E-05 0.000E+00

     total cpu time spent up to now is      417.4 secs

     total energy              =   -1382.70134707 Ry
     Harris-Foulkes estimate   =   -1382.77152782 Ry
     estimated scf accuracy    <       0.09449236 Ry

     iteration #  2     ecut=    42.00 Ry     beta=0.70
     Davidson diagonalization with overlap
     ethr =  3.15E-04,  avg # of iterations =  4.7

     negative rho (up, down):  5.205E-05 0.000E+00

     total cpu time spent up to now is      632.4 secs

     total energy              =   -1382.63894993 Ry
     Harris-Foulkes estimate   =   -1382.84878205 Ry
     estimated scf accuracy    <       0.69281586 Ry

     iteration #  3     ecut=    42.00 Ry     beta=0.70
     Davidson diagonalization with overlap
     ethr =  3.15E-04,  avg # of iterations =  4.2

     negative rho (up, down):  4.083E-05 0.000E+00

     total cpu time spent up to now is      827.7 secs

     total energy              =   -1382.75000118 Ry
     Harris-Foulkes estimate   =   -1382.75352488 Ry
     estimated scf accuracy    <       0.01262039 Ry

     iteration #  4     ecut=    42.00 Ry     beta=0.70
     Davidson diagonalization with overlap
     ethr =  4.21E-05,  avg # of iterations =  2.6

     negative rho (up, down):  3.981E-05 0.000E+00

     total cpu time spent up to now is      992.0 secs

     total energy              =   -1382.75140931 Ry
     Harris-Foulkes estimate   =   -1382.75161747 Ry
     estimated scf accuracy    <       0.00065414 Ry

     iteration #  5     ecut=    42.00 Ry     beta=0.70
     Davidson diagonalization with overlap
     ethr =  2.18E-06,  avg # of iterations =  4.9

     negative rho (up, down):  3.927E-05 0.000E+00

     total cpu time spent up to now is     1190.2 secs

     total energy              =   -1382.75154450 Ry
     Harris-Foulkes estimate   =   -1382.75155436 Ry
     estimated scf accuracy    <       0.00003121 Ry

     iteration #  6     ecut=    42.00 Ry     beta=0.70
     Davidson diagonalization with overlap
     ethr =  1.04E-07,  avg # of iterations =  2.0

     negative rho (up, down):  3.925E-05 0.000E+00

     total cpu time spent up to now is     1365.5 secs

     total energy              =   -1382.75154868 Ry
     Harris-Foulkes estimate   =   -1382.75155022 Ry
     estimated scf accuracy    <       0.00000587 Ry

     iteration #  7     ecut=    42.00 Ry     beta=0.70
     Davidson diagonalization with overlap
     ethr =  1.96E-08,  avg # of iterations =  1.7

     negative rho (up, down):  3.913E-05 0.000E+00

     total cpu time spent up to now is     1515.1 secs

     total energy              =   -1382.75154932 Ry
     Harris-Foulkes estimate   =   -1382.75154936 Ry
     estimated scf accuracy    <       0.00000016 Ry

     iteration #  8     ecut=    42.00 Ry     beta=0.70
     Davidson diagonalization with overlap
     ethr =  5.25E-10,  avg # of iterations =  2.9

     negative rho (up, down):  3.914E-05 0.000E+00

     total cpu time spent up to now is     1705.5 secs

     End of self-consistent calculation

     Number of k-points >= 100: set verbosity='high' to print the bands.

     highest occupied, lowest unoccupied level (ev):     0.7369    0.6128

!    total energy              =   -1382.75154937 Ry
     Harris-Foulkes estimate   =   -1382.75154938 Ry
     estimated scf accuracy    <          6.8E-09 Ry

     total all-electron energy =    -55353.268499 Ry

     The total energy is the sum of the following terms:

     one-electron contribution =    -641.48913630 Ry
     hartree contribution      =     335.95393061 Ry
     xc contribution           =     -78.48865547 Ry
     ewald contribution        =      51.43019667 Ry
     one-center paw contrib.   =   -1050.15788487 Ry

     convergence has been achieved in   8 iterations

     negative rho (up, down):  3.914E-05 0.000E+00

     Forces acting on atoms (cartesian axes, Ry/au):

     atom    1 type  1   force =    -0.00015491   -0.00027513    0.01494185
     atom    2 type  2   force =     0.00015491    0.00027513   -0.01494185

     Total force =     0.021136     Total SCF correction =     0.000509


     Computing stress (Cartesian axis) and pressure


     negative rho (up, down):  3.914E-05 0.000E+00
          total   stress  (Ry/bohr**3)                   (kbar)     P=    0.82
   0.00003402  -0.00000003  -0.00000027          5.00     -0.00     -0.04
  -0.00000003   0.00003403  -0.00000056         -0.00      5.01     -0.08
  -0.00000027  -0.00000056  -0.00005134         -0.04     -0.08     -7.55


     Writing output data file pbte.save

     init_run     :     52.66s CPU     53.15s WALL (       1 calls)
     electrons    :   1646.17s CPU   1651.77s WALL (       1 calls)
     forces       :     20.99s CPU     21.20s WALL (       1 calls)
     stress       :     48.89s CPU     49.54s WALL (       1 calls)

     Called by init_run:
     wfcinit      :     47.75s CPU     48.09s WALL (       1 calls)
     potinit      :      1.48s CPU      1.50s WALL (       1 calls)

     Called by electrons:
     c_bands      :   1420.07s CPU   1422.56s WALL (       9 calls)
     sum_band     :    217.15s CPU    218.95s WALL (       9 calls)
     v_of_rho     :      1.51s CPU      1.53s WALL (       9 calls)
     newd         :      4.12s CPU      5.52s WALL (       9 calls)
     PAW_pot      :      3.95s CPU      3.96s WALL (       9 calls)
     mix_rho      :      0.17s CPU      0.18s WALL (       9 calls)

     Called by c_bands:
     init_us_2    :     26.52s CPU     26.62s WALL (    8400 calls)
     cegterg      :   1374.07s CPU   1376.48s WALL (    3600 calls)

     Called by sum_band:
     sum_band:bec :      0.15s CPU      0.15s WALL (    3600 calls)
     addusdens    :      5.50s CPU      6.89s WALL (       9 calls)

     Called by *egterg:
     h_psi        :   1002.38s CPU   1004.60s WALL (   17007 calls)
     s_psi        :     86.97s CPU     87.09s WALL (   17007 calls)
     g_psi        :      4.97s CPU      4.99s WALL (   13007 calls)
     cdiaghg      :     16.81s CPU     16.86s WALL (   16207 calls)

     Called by h_psi:
     h_psi:pot    :    997.22s CPU    999.40s WALL (   17007 calls)
     h_psi:calbec :     88.67s CPU     88.76s WALL (   17007 calls)
     vloc_psi     :    822.34s CPU    824.33s WALL (   17007 calls)
     add_vuspsi   :     86.03s CPU     86.18s WALL (   17007 calls)

     General routines
     calbec       :    141.12s CPU    141.28s WALL (   22607 calls)
     fft          :      1.29s CPU      1.29s WALL (     169 calls)
     ffts         :      0.05s CPU      0.05s WALL (      18 calls)
     fftw         :    867.68s CPU    869.87s WALL (  449760 calls)
     interpolate  :      0.22s CPU      0.22s WALL (      18 calls)


     PWSCF        : 29m31.67s CPU    29m39.28s WALL


   This run was terminated on:  20: 6: 6  20Sep2020            

=------------------------------------------------------------------------------=
   JOB DONE.
=------------------------------------------------------------------------------=
