ESCALE ; pCOHP file generated by LOBSTER. Energy is shifted such that the Fermi level lies at 0 eV.
        83          1       1001  -2.95526e+01   2.04975e+01   4.77467e-01 
Average
No.1:Sn1->Te2(2.8804919571001326)
No.1:Sn1[5s]->Te2[5s](2.8804919571001326)
No.1:Sn1[5s]->Te2[5p_y](2.8804919571001326)
No.1:Sn1[5s]->Te2[5p_z](2.8804919571001326)
No.1:Sn1[5s]->Te2[5p_x](2.8804919571001326)
No.1:Sn1[5s]->Te2[4d_xy](2.8804919571001326)
No.1:Sn1[5s]->Te2[4d_yz](2.8804919571001326)
No.1:Sn1[5s]->Te2[4d_z^2](2.8804919571001326)
No.1:Sn1[5s]->Te2[4d_xz](2.8804919571001326)
No.1:Sn1[5s]->Te2[4d_x^2-y^2](2.8804919571001326)
No.1:Sn1[5p_y]->Te2[5s](2.8804919571001326)
No.1:Sn1[5p_y]->Te2[5p_y](2.8804919571001326)
No.1:Sn1[5p_y]->Te2[5p_z](2.8804919571001326)
No.1:Sn1[5p_y]->Te2[5p_x](2.8804919571001326)
No.1:Sn1[5p_y]->Te2[4d_xy](2.8804919571001326)
No.1:Sn1[5p_y]->Te2[4d_yz](2.8804919571001326)
No.1:Sn1[5p_y]->Te2[4d_z^2](2.8804919571001326)
No.1:Sn1[5p_y]->Te2[4d_xz](2.8804919571001326)
No.1:Sn1[5p_y]->Te2[4d_x^2-y^2](2.8804919571001326)
No.1:Sn1[5p_z]->Te2[5s](2.8804919571001326)
No.1:Sn1[5p_z]->Te2[5p_y](2.8804919571001326)
No.1:Sn1[5p_z]->Te2[5p_z](2.8804919571001326)
No.1:Sn1[5p_z]->Te2[5p_x](2.8804919571001326)
No.1:Sn1[5p_z]->Te2[4d_xy](2.8804919571001326)
No.1:Sn1[5p_z]->Te2[4d_yz](2.8804919571001326)
No.1:Sn1[5p_z]->Te2[4d_z^2](2.8804919571001326)
No.1:Sn1[5p_z]->Te2[4d_xz](2.8804919571001326)
No.1:Sn1[5p_z]->Te2[4d_x^2-y^2](2.8804919571001326)
No.1:Sn1[5p_x]->Te2[5s](2.8804919571001326)
No.1:Sn1[5p_x]->Te2[5p_y](2.8804919571001326)
No.1:Sn1[5p_x]->Te2[5p_z](2.8804919571001326)
No.1:Sn1[5p_x]->Te2[5p_x](2.8804919571001326)
No.1:Sn1[5p_x]->Te2[4d_xy](2.8804919571001326)
No.1:Sn1[5p_x]->Te2[4d_yz](2.8804919571001326)
No.1:Sn1[5p_x]->Te2[4d_z^2](2.8804919571001326)
No.1:Sn1[5p_x]->Te2[4d_xz](2.8804919571001326)
No.1:Sn1[5p_x]->Te2[4d_x^2-y^2](2.8804919571001326)
No.1:Sn1[4d_xy]->Te2[5s](2.8804919571001326)
No.1:Sn1[4d_xy]->Te2[5p_y](2.8804919571001326)
No.1:Sn1[4d_xy]->Te2[5p_z](2.8804919571001326)
No.1:Sn1[4d_xy]->Te2[5p_x](2.8804919571001326)
No.1:Sn1[4d_xy]->Te2[4d_xy](2.8804919571001326)
No.1:Sn1[4d_xy]->Te2[4d_yz](2.8804919571001326)
No.1:Sn1[4d_xy]->Te2[4d_z^2](2.8804919571001326)
No.1:Sn1[4d_xy]->Te2[4d_xz](2.8804919571001326)
No.1:Sn1[4d_xy]->Te2[4d_x^2-y^2](2.8804919571001326)
No.1:Sn1[4d_yz]->Te2[5s](2.8804919571001326)
No.1:Sn1[4d_yz]->Te2[5p_y](2.8804919571001326)
No.1:Sn1[4d_yz]->Te2[5p_z](2.8804919571001326)
No.1:Sn1[4d_yz]->Te2[5p_x](2.8804919571001326)
No.1:Sn1[4d_yz]->Te2[4d_xy](2.8804919571001326)
No.1:Sn1[4d_yz]->Te2[4d_yz](2.8804919571001326)
No.1:Sn1[4d_yz]->Te2[4d_z^2](2.8804919571001326)
No.1:Sn1[4d_yz]->Te2[4d_xz](2.8804919571001326)
No.1:Sn1[4d_yz]->Te2[4d_x^2-y^2](2.8804919571001326)
No.1:Sn1[4d_z^2]->Te2[5s](2.8804919571001326)
No.1:Sn1[4d_z^2]->Te2[5p_y](2.8804919571001326)
No.1:Sn1[4d_z^2]->Te2[5p_z](2.8804919571001326)
No.1:Sn1[4d_z^2]->Te2[5p_x](2.8804919571001326)
No.1:Sn1[4d_z^2]->Te2[4d_xy](2.8804919571001326)
No.1:Sn1[4d_z^2]->Te2[4d_yz](2.8804919571001326)
No.1:Sn1[4d_z^2]->Te2[4d_z^2](2.8804919571001326)
No.1:Sn1[4d_z^2]->Te2[4d_xz](2.8804919571001326)
No.1:Sn1[4d_z^2]->Te2[4d_x^2-y^2](2.8804919571001326)
No.1:Sn1[4d_xz]->Te2[5s](2.8804919571001326)
No.1:Sn1[4d_xz]->Te2[5p_y](2.8804919571001326)
No.1:Sn1[4d_xz]->Te2[5p_z](2.8804919571001326)
No.1:Sn1[4d_xz]->Te2[5p_x](2.8804919571001326)
No.1:Sn1[4d_xz]->Te2[4d_xy](2.8804919571001326)
No.1:Sn1[4d_xz]->Te2[4d_yz](2.8804919571001326)
No.1:Sn1[4d_xz]->Te2[4d_z^2](2.8804919571001326)
No.1:Sn1[4d_xz]->Te2[4d_xz](2.8804919571001326)
No.1:Sn1[4d_xz]->Te2[4d_x^2-y^2](2.8804919571001326)
No.1:Sn1[4d_x^2-y^2]->Te2[5s](2.8804919571001326)
No.1:Sn1[4d_x^2-y^2]->Te2[5p_y](2.8804919571001326)
No.1:Sn1[4d_x^2-y^2]->Te2[5p_z](2.8804919571001326)
No.1:Sn1[4d_x^2-y^2]->Te2[5p_x](2.8804919571001326)
No.1:Sn1[4d_x^2-y^2]->Te2[4d_xy](2.8804919571001326)
No.1:Sn1[4d_x^2-y^2]->Te2[4d_yz](2.8804919571001326)
No.1:Sn1[4d_x^2-y^2]->Te2[4d_z^2](2.8804919571001326)
No.1:Sn1[4d_x^2-y^2]->Te2[4d_xz](2.8804919571001326)
No.1:Sn1[4d_x^2-y^2]->Te2[4d_x^2-y^2](2.8804919571001326)
-30.03003   0.00000  -0.00106   0.00000  -0.04357   0.00000   0.00001   0.00000  -0.00000   0.00000  -0.00002   0.00000  -0.00000   0.00000  -0.00223   0.00000  -0.00143   0.00000  -0.00000   0.00000  -0.00428   0.00000  -0.00074   0.00000  -0.00000   0.00000   0.00000   0.00000   0.00000   0.00000  -0.00002   0.00000  -0.00001   0.00000   0.00000   0.00000  -0.00030   0.00000  -0.00451   0.00000  -0.00336   0.00000   0.00001   0.00000  -0.00001   0.00000   0.00000   0.00000  -0.00002   0.00000  -0.00452   0.00000  -0.00071   0.00000  -0.00200   0.00000  -0.00214   0.00000  -0.00151   0.00000  -0.00001   0.00000  -0.00002   0.00000   0.00001   0.00000  -0.00004   0.00000  -0.00287   0.00000  -0.00451   0.00000  -0.00091   0.00000  -0.00611   0.00000  -0.00001   0.00000  -0.00000   0.00000   0.00000   0.00000  -0.00000   0.00000  -0.00000   0.00000  -0.00002   0.00000  -0.00003   0.00000  -0.00002   0.00000  -0.00019   0.00000  -0.00004   0.00000  -0.00000   0.00000  -0.00000   0.00000   0.00000   0.00000  -0.00000   0.00000  -0.00002   0.00000  -0.00001   0.00000  -0.00000   0.00000  -0.00011   0.00000  -0.00007   0.00000  -0.00000   0.00000  -0.00000   0.00000  -0.00000   0.00000  -0.00000   0.00000  -0.00002   0.00000  -0.00000   0.00000  -0.00004   0.00000  -0.00001   0.00000  -0.00001   0.00000  -0.00000   0.00000  -0.00000   0.00000   0.00000   0.00000  -0.00000   0.00000  -0.00019   0.00000  -0.00011   0.00000  -0.00000   0.00000  -0.00023   0.00000  -0.00002   0.00000  -0.00000   0.00000  -0.00000   0.00000  -0.00000   0.00000   0.00000   0.00000  -0.00004   0.00000  -0.00006   0.00000  -0.00001   0.00000  -0.00003   0.00000  -0.00001
-29.97998   0.00000  -0.00106   0.00000  -0.04357   0.00000   0.00001   0.00000  -0.00000   0.00000  -0.00002   0.00000  -0.00000   0.00000  -0.00223   0.00000  -0.00143   0.00000  -0.00000   0.00000  -0.00428   0.00000  -0.00074   0.00000  -0.00000   0.00000   0.00000   0.00000   0.00000   0.00000  -0.00002   0.00000  -0.00001   0.00000   0.00000   0.00000  -0.00030   0.00000  -0.00451   0.00000  -0.00336   0.00000   0.00001   0.00000  -0.00001   0.00000   0.00000   0.00000  -0.00002   0.00000  -0.00452   0.00000  -0.00071   0.00000  -0.00200   0.00000  -0.00214   0.00000  -0.00151   0.00000  -0.00001   0.00000  -0.00002   0.00000   0.00001   0.00000  -0.00004   0.00000  -0.00287   0.00000  -0.00451   0.00000  -0.00091   0.00000  -0.00611   0.00000  -0.00001   0.00000  -0.00000   0.00000   0.00000   0.00000  -0.00000   0.00000  -0.00000   0.00000  -0.00002   0.00000  -0.00003   0.00000  -0.00002   0.00000  -0.00019   0.00000  -0.00004   0.00000  -0.00000   0.00000  -0.00000   0.00000   0.00000   0.00000  -0.00000   0.00000  -0.00002   0.00000  -0.00001   0.00000  -0.00000   0.00000  -0.00011   0.00000  -0.00007   0.00000  -0.00000   0.00000  -0.00000   0.00000  -0.00000   0.00000  -0.00000   0.00000  -0.00002   0.00000  -0.00000   0.00000  -0.00004   0.00000  -0.00001   0.00000  -0.00001   0.00000  -0.00000   0.00000  -0.00000   0.00000   0.00000   0.00000  -0.00000   0.00000  -0.00019   0.00000  -0.00011   0.00000  -0.00000   0.00000  -0.00023   0.00000  -0.00002   0.00000  -0.00000   0.00000  -0.00000   0.00000  -0.00000   0.00000   0.00000   0.00000  -0.00004   0.00000  -0.00006   0.00000  -0.00001   0.00000  -0.00003   0.00000  -0.00001
-29.92993   0.00000  -0.00106   0.00000  -0.04357   0.00000   0.00001   0.00000  -0.00000   0.00000  -0.00002   0.00000  -0.00000   0.00000  -0.00223   0.00000  -0.00143   0.00000  -0.00000   0.00000  -0.00428   0.00000  -0.00074   0.00000  -0.00000   0.00000   0.00000   0.00000   0.00000   0.00000  -0.00002   0.00000  -0.00001   0.00000   0.00000   0.00000  -0.00030   0.00000  -0.00451   0.00000  -0.00336   0.00000   0.00001   0.00000  -0.00001   0.00000   0.00000   0.00000  -0.00002   0.00000  -0.00452   0.00000  -0.00071   0.00000  -0.00200   0.00000  -0.00214   0.00000  -0.00151   0.00000  -0.00001   0.00000  -0.00002   0.00000   0.00001   0.00000  -0.00004   0.00000  -0.00287   0.00000  -0.00451   0.00000  -0.00091   0.00000  -0.00611   0.00000  -0.00001   0.00000  -0.00000   0.00000   0.00000   0.00000  -0.00000   0.00000  -0.00000   0.00000  -0.00002   0.00000  -0.00003   0.00000  -0.00002   0.00000  -0.00019   0.00000  -0.00004   0.00000  -0.00000   0.00000  -0.00000   0.00000   0.00000   0.00000  -0.00000   0.00000  -0.00002   0.00000  -0.00001   0.00000  -0.00000   0.00000  -0.00011   0.00000  -0.00007   0.00000  -0.00000   0.00000  -0.00000   0.00000  -0.00000   0.00000  -0.00000   0.00000  -0.00002   0.00000  -0.00000   0.00000  -0.00004   0.00000  -0.00001   0.00000  -0.00001   0.00000  -0.00000   0.00000  -0.00000   0.00000   0.00000   0.00000  -0.00000   0.00000  -0.00019   0.00000  -0.00011   0.00000  -0.00000   0.00000  -0.00023   0.00000  -0.00002   0.00000  -0.00000   0.00000  -0.00000   0.00000  -0.00000   0.00000   0.00000   0.00000  -0.00004   0.00000  -0.00006   0.00000  -0.00001   0.00000  -0.00003   0.00000  -0.00001
-29.87988   0.00000  -0.00106   0.00000  -0.04357   0.00000   0.00001   0.00000  -0.00000   0.00000  -0.00002   0.00000  -0.00000   0.00000  -0.00223   0.00000  -0.00143   0.00000  -0.00000   0.00000  -0.00428   0.00000  -0.00074   0.00000  -0.00000   0.00000   0.00000   0.00000   0.00000   0.00000  -0.00002   0.00000  -0.00001   0.00000   0.00000   0.00000  -0.00030   0.00000  -0.00451   0.00000  -0.00336   0.00000   0.00001   0.00000  -0.00001   0.00000   0.00000   0.00000  -0.00002   0.00000  -0.00452   0.00000  -0.00071   0.00000  -0.00200   0.00000  -0.00214   0.00000  -0.00151   0.00000  -0.00001   0.00000  -0.00002   0.00000   0.00001   0.00000  -0.00004   0.00000  -0.00287   0.00000  -0.00451   0.00000  -0.00091   0.00000  -0.00611   0.00000  -0.00001   0.00000  -0.00000   0.00000   0.00000   0.00000  -0.00000   0.00000  -0.00000   0.00000  -0.00002   0.00000  -0.00003   0.00000  -0.00002   0.00000  -0.00019   0.00000  -0.00004   0.00000  -0.00000   0.00000  -0.00000   0.00000   0.00000   0.00000  -0.00000   0.00000  -0.00002   0.00000  -0.00001   0.00000  -0.00000   0.00000  -0.00011   0.00000  -0.00007   0.00000  -0.00000   0.00000  -0.00000   0.00000  -0.00000   0.00000  -0.00000   0.00000  -0.00002   0.00000  -0.00000   0.00000  -0.00004   0.00000  -0.00001   0.00000  -0.00001   0.00000  -0.00000   0.00000  -0.00000   0.00000   0.00000   0.00000  -0.00000   0.00000  -0.00019   0.00000  -0.00011   0.00000  -0.00000   0.00000  -0.00023   0.00000  -0.00002   0.00000  -0.00000   0.00000  -0.00000   0.00000  -0.00000   0.00000   0.00000   0.00000  -0.00004   0.00000  -0.00006   0.00000  -0.00001   0.00000  -0.00003   0.00000  -0.00001
-29.82983   0.00000  -0.00106   0.00000  -0.04357   0.00000   0.00001   0.00000  -0.00000   0.00000  -0.00002   0.00000  -0.00000   0.00000  -0.00223   0.00000  -0.00143   0.00000  -0.00000   0.00000  -0.00428   0.00000  -0.00074   0.00000  -0.00000   0.00000   0.00000   0.00000   0.00000   0.00000  -0.00002   0.00000  -0.00001   0.00000   0.00000   0.00000  -0.00030   0.00000  -0.00451   0.00000  -0.00336   0.00000   0.00001   0.00000  -0.00001   0.00000   0.00000   0.00000  -0.00002   0.00000  -0.00452   0.00000  -0.00071   0.00000  -0.00200   0.00000  -0.00214   0.00000  -0.00151   0.00000  -0.00001   0.00000  -0.00002   0.00000   0.00001   0.00000  -0.00004   0.00000  -0.00287   0.00000  -0.00451   0.00000  -0.00091   0.00000  -0.00611   0.00000  -0.00001   0.00000  -0.00000   0.00000   0.00000   0.00000  -0.00000   0.00000  -0.00000   0.00000  -0.00002   0.00000  -0.00003   0.00000  -0.00002   0.00000  -0.00019   0.00000  -0.00004   0.00000  -0.00000   0.00000  -0.00000   0.00000   0.00000   0.00000  -0.00000   0.00000  -0.00002   0.00000  -0.00001   0.00000  -0.00000   0.00000  -0.00011   0.00000  -0.00007   0.00000  -0.00000   0.00000  -0.00000   0.00000  -0.00000   0.00000  -0.00000   0.00000  -0.00002   0.00000  -0.00000   0.00000  -0.00004   0.00000  -0.00001   0.00000  -0.00001   0.00000  -0.00000   0.00000  -0.00000   0.00000   0.00000   0.00000  -0.00000   0.00000  -0.00019   0.00000  -0.00011   0.00000  -0.00000   0.00000  -0.00023   0.00000  -0.00002   0.00000  -0.00000   0.00000  -0.00000   0.00000  -0.00000   0.00000   0.00000   0.00000  -0.00004   0.00000  -0.00006   0.00000  -0.00001   0.00000  -0.00003   0.00000  -0.00001
-29.77978   0.00000  -0.00106   0.00000  -0.04357   0.00000   0.00001   0.00000  -0.00000   0.00000  -0.00002   0.00000  -0.00000   0.00000  -0.00223   0.00000  -0.00143   0.00000  -0.00000   0.00000  -0.00428   0.00000  -0.00074   0.00000  -0.00000   0.00000   0.00000   0.00000   0.00000   0.00000  -0.00002   0.00000  -0.00001   0.00000   0.00000   0.00000  -0.00030   0.00000  -0.00451   0.00000  -0.00336   0.00000   0.00001   0.00000  -0.00001   0.00000   0.00000   0.00000  -0.00002   0.00000  -0.00452   0.00000  -0.00071   0.00000  -0.00200   0.00000  -0.00214   0.00000  -0.00151   0.00000  -0.00001   0.00000  -0.00002   0.00000   0.00001   0.00000  -0.00004   0.00000  -0.00287   0.00000  -0.00451   0.00000  -0.00091   0.00000  -0.00611   0.00000  -0.00001   0.00000  -0.00000   0.00000   0.00000   0.00000  -0.00000   0.00000  -0.00000   0.00000  -0.00002   0.00000  -0.00003   0.00000  -0.00002   0.00000  -0.00019   0.00000  -0.00004   0.00000  -0.00000   0.00000  -0.00000   0.00000   0.00000   0.00000  -0.00000   0.00000  -0.00002   0.00000  -0.00001   0.00000  -0.00000   0.00000  -0.00011   0.00000  -0.00007   0.00000  -0.00000   0.00000  -0.00000   0.00000  -0.00000   0.00000  -0.00000   0.00000  -0.00002   0.00000  -0.00000   0.00000  -0.00004   0.00000  -0.00001   0.00000  -0.00001   0.00000  -0.00000   0.00000  -0.00000   0.00000   0.00000   0.00000  -0.00000   0.00000  -0.00019   0.00000  -0.00011   0.00000  -0.00000   0.00000  -0.00023   0.00000  -0.00002   0.00000  -0.00000   0.00000  -0.00000   0.00000  -0.00000   0.00000   0.00000   0.00000  -0.00004   0.00000  -0.00006   0.00000  -0.00001   0.00000  -0.00003   0.00000  -0.00001
-29.72973   0.00000  -0.00106   0.00000  -0.04357   0.00000   0.00001   0.00000  -0.00000   0.00000  -0.00002   0.00000  -0.00000   0.00000  -0.00223   0.00000  -0.00143   0.00000  -0.00000   0.00000  -0.00428   0.00000  -0.00074   0.00000  -0.00000   0.00000   0.00000   0.00000   0.00000   0.00000  -0.00002   0.00000  -0.00001   0.00000   0.00000   0.00000  -0.00030   0.00000  -0.00451   0.00000  -0.00336   0.00000   0.00001   0.00000  -0.00001   0.00000   0.00000   0.00000  -0.00002   0.00000  -0.00452   0.00000  -0.00071   0.00000  -0.00200   0.00000  -0.00214   0.00000  -0.00151   0.00000  -0.00001   0.00000  -0.00002   0.00000   0.00001   0.00000  -0.00004   0.00000  -0.00287   0.00000  -0.00451   0.00000  -0.00091   0.00000  -0.00611   0.00000  -0.00001   0.00000  -0.00000   0.00000   0.00000   0.00000  -0.00000   0.00000  -0.00000   0.00000  -0.00002   0.00000  -0.00003   0.00000  -0.00002   0.00000  -0.00019   0.00000  -0.00004   0.00000  -0.00000   0.00000  -0.00000   0.00000   0.00000   0.00000  -0.00000   0.00000  -0.00002   0.00000  -0.00001   0.00000  -0.00000   0.00000  -0.00011   0.00000  -0.00007   0.00000  -0.00000   0.00000  -0.00000   0.00000  -0.00000   0.00000  -0.00000   0.00000  -0.00002   0.00000  -0.00000   0.00000  -0.00004   0.00000  -0.00001   0.00000  -0.00001   0.00000  -0.00000   0.00000  -0.00000   0.00000   0.00000   0.00000  -0.00000   0.00000  -0.00019   0.00000  -0.00011   0.00000  -0.00000   0.00000  -0.00023   0.00000  -0.00002   0.00000  -0.00000   0.00000  -0.00000   0.00000  -0.00000   0.00000   0.00000   0.00000  -0.00004   0.00000  -0.00006   0.00000  -0.00001   0.00000  -0.00003   0.00000  -0.00001
-29.67968   0.00000  -0.00106   0.00000  -0.04357   0.00000   0.00001   0.00000  -0.00000   0.00000  -0.00002   0.00000  -0.00000   0.00000  -0.00223   0.00000  -0.00143   0.00000  -0.00000   0.00000  -0.00428   0.00000  -0.00074   0.00000  -0.00000   0.00000   0.00000   0.00000   0.00000   0.00000  -0.00002   0.00000  -0.00001   0.00000   0.00000   0.00000  -0.00030   0.00000  -0.00451   0.00000  -0.00336   0.00000   0.00001   0.00000  -0.00001   0.00000   0.00000   0.00000  -0.00002   0.00000  -0.00452   0.00000  -0.00071   0.00000  -0.00200   0.00000  -0.00214   0.00000  -0.00151   0.00000  -0.00001   0.00000  -0.00002   0.00000   0.00001   0.00000  -0.00004   0.00000  -0.00287   0.00000  -0.00451   0.00000  -0.00091   0.00000  -0.00611   0.00000  -0.00001   0.00000  -0.00000   0.00000   0.00000   0.00000  -0.00000   0.00000  -0.00000   0.00000  -0.00002   0.00000  -0.00003   0.00000  -0.00002   0.00000  -0.00019   0.00000  -0.00004   0.00000  -0.00000   0.00000  -0.00000   0.00000   0.00000   0.00000  -0.00000   0.00000  -0.00002   0.00000  -0.00001   0.00000  -0.00000   0.00000  -0.00011   0.00000  -0.00007   0.00000  -0.00000   0.00000  -0.00000   0.00000  -0.00000   0.00000  -0.00000   0.00000  -0.00002   0.00000  -0.00000   0.00000  -0.00004   0.00000  -0.00001   0.00000  -0.00001   0.00000  -0.00000   0.00000  -0.00000   0.00000   0.00000   0.00000  -0.00000   0.00000  -0.00019   0.00000  -0.00011   0.00000  -0.00000   0.00000  -0.00023   0.00000  -0.00002   0.00000  -0.00000   0.00000  -0.00000   0.00000  -0.00000   0.00000   0.00000   0.00000  -0.00004   0.00000  -0.00006   0.00000  -0.00001   0.00000  -0.00003   0.00000  -0.00001
-29.62963   0.00000  -0.00106   0.00000  -0.04357   0.00000   0.00001   0.00000  -0.00000   0.00000  -0.00002   0.00000  -0.00000   0.00000  -0.00223   0.00000  -0.00143   0.00000  -0.00000   0.00000  -0.00428   0.00000  -0.00074   0.00000  -0.00000   0.00000   0.00000   0.00000   0.00000   0.00000  -0.00002   0.00000  -0.00001   0.00000   0.00000   0.00000  -0.00030   0.00000  -0.00451   0.00000  -0.00336   0.00000   0.00001   0.00000  -0.00001   0.00000   0.00000   0.00000  -0.00002   0.00000  -0.00452   0.00000  -0.00071   0.00000  -0.00200   0.00000  -0.00214   0.00000  -0.00151   0.00000  -0.00001   0.00000  -0.00002   0.00000   0.00001   0.00000  -0.00004   0.00000  -0.00287   0.00000  -0.00451   0.00000  -0.00091   0.00000  -0.00611   0.00000  -0.00001   0.00000  -0.00000   0.00000   0.00000   0.00000  -0.00000   0.00000  -0.00000   0.00000  -0.00002   0.00000  -0.00003   0.00000  -0.00002   0.00000  -0.00019   0.00000  -0.00004   0.00000  -0.00000   0.00000  -0.00000   0.00000   0.00000   0.00000  -0.00000   0.00000  -0.00002   0.00000  -0.00001   0.00000  -0.00000   0.00000  -0.00011   0.00000  -0.00007   0.00000  -0.00000   0.00000  -0.00000   0.00000  -0.00000   0.00000  -0.00000   0.00000  -0.00002   0.00000  -0.00000   0.00000  -0.00004   0.00000  -0.00001   0.00000  -0.00001   0.00000  -0.00000   0.00000  -0.00000   0.00000   0.00000   0.00000  -0.00000   0.00000  -0.00019   0.00000  -0.00011   0.00000  -0.00000   0.00000  -0.00023   0.00000  -0.00002   0.00000  -0.00000   0.00000  -0.00000   0.00000  -0.00000   0.00000   0.00000   0.00000  -0.00004   0.00000  -0.00006   0.00000  -0.00001   0.00000  -0.00003   0.00000  -0.00001
-29.57958   0.00000  -0.00106   0.00000  -0.04357   0.00000   0.00001   0.00000  -0.00000   0.00000  -0.00002   0.00000  -0.00000   0.00000  -0.00223   0.00000  -0.00143   0.00000  -0.00000   0.00000  -0.00428   0.00000  -0.00074   0.00000  -0.00000   0.00000   0.00000   0.00000   0.00000   0.00000  -0.00002   0.00000  -0.00001   0.00000   0.00000   0.00000  -0.00030   0.00000  -0.00451   0.00000  -0.00336   0.00000   0.00001   0.00000  -0.00001   0.00000   0.00000   0.00000  -0.00002   0.00000  -0.00452   0.00000  -0.00071   0.00000  -0.00200   0.00000  -0.00214   0.00000  -0.00151   0.00000  -0.00001   0.00000  -0.00002   0.00000   0.00001   0.00000  -0.00004   0.00000  -0.00287   0.00000  -0.00451   0.00000  -0.00091   0.00000  -0.00611   0.00000  -0.00001   0.00000  -0.00000   0.00000   0.00000   0.00000  -0.00000   0.00000  -0.00000   0.00000  -0.00002   0.00000  -0.00003   0.00000  -0.00002   0.00000  -0.00019   0.00000  -0.00004   0.00000  -0.00000   0.00000  -0.00000   0.00000   0.00000   0.00000  -0.00000   0.00000  -0.00002   0.00000  -0.00001   0.00000  -0.00000   0.00000  -0.00011   0.00000  -0.00007   0.00000  -0.00000   0.00000  -0.00000   0.00000  -0.00000   0.00000  -0.00000   0.00000  -0.00002   0.00000  -0.00000   0.00000  -0.00004   0.00000  -0.00001   0.00000  -0.00001   0.00000  -0.00000   0.00000  -0.00000   0.00000   0.00000   0.00000  -0.00000   0.00000  -0.00019   0.00000  -0.00011   0.00000  -0.00000   0.00000  -0.00023   0.00000  -0.00002   0.00000  -0.00000   0.00000  -0.00000   0.00000  -0.00000   0.00000   0.00000   0.00000  -0.00004   0.00000  -0.00006   0.00000  -0.00001   0.00000  -0.00003   0.00000  -0.00001
-29.52953   0.00000  -0.00106   0.00000  -0.04357   0.00000   0.00001   0.00000  -0.00000   0.00000  -0.00002   0.00000  -0.00000   0.00000  -0.00223   0.00000  -0.00143   0.00000  -0.00000   0.00000  -0.00428   0.00000  -0.00074   0.00000  -0.00000   0.00000   0.00000   0.00000   0.00000   0.00000  -0.00002   0.00000  -0.00001   0.00000   0.00000   0.00000  -0.00030   0.00000  -0.00451   0.00000  -0.00336   0.00000   0.00001   0.00000  -0.00001   0.00000   0.00000   0.00000  -0.00002   0.00000  -0.00452   0.00000  -0.00071   0.00000  -0.00200   0.00000  -0.00214   0.00000  -0.00151   0.00000  -0.00001   0.00000  -0.00002   0.00000   0.00001   0.00000  -0.00004   0.00000  -0.00287   0.00000  -0.00451   0.00000  -0.00091   0.00000  -0.00611   0.00000  -0.00001   0.00000  -0.00000   0.00000   0.00000   0.00000  -0.00000   0.00000  -0.00000   0.00000  -0.00002   0.00000  -0.00003   0.00000  -0.00002   0.00000  -0.00019   0.00000  -0.00004   0.00000  -0.00000   0.00000  -0.00000   0.00000   0.00000   0.00000  -0.00000   0.00000  -0.00002   0.00000  -0.00001   0.00000  -0.00000   0.00000  -0.00011   0.00000  -0.00007   0.00000  -0.00000   0.00000  -0.00000   0.00000  -0.00000   0.00000  -0.00000   0.00000  -0.00002   0.00000  -0.00000   0.00000  -0.00004   0.00000  -0.00001   0.00000  -0.00001   0.00000  -0.00000   0.00000  -0.00000   0.00000   0.00000   0.00000  -0.00000   0.00000  -0.00019   0.00000  -0.00011   0.00000  -0.00000   0.00000  -0.00023   0.00000  -0.00002   0.00000  -0.00000   0.00000  -0.00000   0.00000  -0.00000   0.00000   0.00000   0.00000  -0.00004   0.00000  -0.00006   0.00000  -0.00001   0.00000  -0.00003   0.00000  -0.00001
-29.47948   0.00000  -0.00106   0.00000  -0.04357   0.00000   0.00001   0.00000  -0.00000   0.00000  -0.00002   0.00000  -0.00000   0.00000  -0.00223   0.00000  -0.00143   0.00000  -0.00000   0.00000  -0.00428   0.00000  -0.00074   0.00000  -0.00000   0.00000   0.00000   0.00000   0.00000   0.00000  -0.00002   0.00000  -0.00001   0.00000   0.00000   0.00000  -0.00030   0.00000  -0.00451   0.00000  -0.00336   0.00000   0.00001   0.00000  -0.00001   0.00000   0.00000   0.00000  -0.00002   0.00000  -0.00452   0.00000  -0.00071   0.00000  -0.00200   0.00000  -0.00214   0.00000  -0.00151   0.00000  -0.00001   0.00000  -0.00002   0.00000   0.00001   0.00000  -0.00004   0.00000  -0.00287   0.00000  -0.00451   0.00000  -0.00091   0.00000  -0.00611   0.00000  -0.00001   0.00000  -0.00000   0.00000   0.00000   0.00000  -0.00000   0.00000  -0.00000   0.00000  -0.00002   0.00000  -0.00003   0.00000  -0.00002   0.00000  -0.00019   0.00000  -0.00004   0.00000  -0.00000   0.00000  -0.00000   0.00000   0.00000   0.00000  -0.00000   0.00000  -0.00002   0.00000  -0.00001   0.00000  -0.00000   0.00000  -0.00011   0.00000  -0.00007   0.00000  -0.00000   0.00000  -0.00000   0.00000  -0.00000   0.00000  -0.00000   0.00000  -0.00002   0.00000  -0.00000   0.00000  -0.00004   0.00000  -0.00001   0.00000  -0.00001   0.00000  -0.00000   0.00000  -0.00000   0.00000   0.00000   0.00000  -0.00000   0.00000  -0.00019   0.00000  -0.00011   0.00000  -0.00000   0.00000  -0.00023   0.00000  -0.00002   0.00000  -0.00000   0.00000  -0.00000   0.00000  -0.00000   0.00000   0.00000   0.00000  -0.00004   0.00000  -0.00006   0.00000  -0.00001   0.00000  -0.00003   0.00000  -0.00001
-29.42943   0.00000  -0.00106   0.00000  -0.04357   0.00000   0.00001   0.00000  -0.00000   0.00000  -0.00002   0.00000  -0.00000   0.00000  -0.00223   0.00000  -0.00143   0.00000  -0.00000   0.00000  -0.00428   0.00000  -0.00074   0.00000  -0.00000   0.00000   0.00000   0.00000   0.00000   0.00000  -0.00002   0.00000  -0.00001   0.00000   0.00000   0.00000  -0.00030   0.00000  -0.00451   0.00000  -0.00336   0.00000   0.00001   0.00000  -0.00001   0.00000   0.00000   0.00000  -0.00002   0.00000  -0.00452   0.00000  -0.00071   0.00000  -0.00200   0.00000  -0.00214   0.00000  -0.00151   0.00000  -0.00001   0.00000  -0.00002   0.00000   0.00001   0.00000  -0.00004   0.00000  -0.00287   0.00000  -0.00451   0.00000  -0.00091   0.00000  -0.00611   0.00000  -0.00001   0.00000  -0.00000   0.00000   0.00000   0.00000  -0.00000   0.00000  -0.00000   0.00000  -0.00002   0.00000  -0.00003   0.00000  -0.00002   0.00000  -0.00019   0.00000  -0.00004   0.00000  -0.00000   0.00000  -0.00000   0.00000   0.00000   0.00000  -0.00000   0.00000  -0.00002   0.00000  -0.00001   0.00000  -0.00000   0.00000  -0.00011   0.00000  -0.00007   0.00000  -0.00000   0.00000  -0.00000   0.00000  -0.00000   0.00000  -0.00000   0.00000  -0.00002   0.00000  -0.00000   0.00000  -0.00004   0.00000  -0.00001   0.00000  -0.00001   0.00000  -0.00000   0.00000  -0.00000   0.00000   0.00000   0.00000  -0.00000   0.00000  -0.00019   0.00000  -0.00011   0.00000  -0.00000   0.00000  -0.00023   0.00000  -0.00002   0.00000  -0.00000   0.00000  -0.00000   0.00000  -0.00000   0.00000   0.00000   0.00000  -0.00004   0.00000  -0.00006   0.00000  -0.00001   0.00000  -0.00003   0.00000  -0.00001
-29.37938   0.00000  -0.00106   0.00000  -0.04357   0.00000   0.00001   0.00000  -0.00000   0.00000  -0.00002   0.00000  -0.00000   0.00000  -0.00223   0.00000  -0.00143   0.00000  -0.00000   0.00000  -0.00428   0.00000  -0.00074   0.00000  -0.00000   0.00000   0.00000   0.00000   0.00000   0.00000  -0.00002   0.00000  -0.00001   0.00000   0.00000   0.00000  -0.00030   0.00000  -0.00451   0.00000  -0.00336   0.00000   0.00001   0.00000  -0.00001   0.00000   0.00000   0.00000  -0.00002   0.00000  -0.00452   0.00000  -0.00071   0.00000  -0.00200   0.00000  -0.00214   0.00000  -0.00151   0.00000  -0.00001   0.00000  -0.00002   0.00000   0.00001   0.00000  -0.00004   0.00000  -0.00287   0.00000  -0.00451   0.00000  -0.00091   0.00000  -0.00611   0.00000  -0.00001   0.00000  -0.00000   0.00000   0.00000   0.00000  -0.00000   0.00000  -0.00000   0.00000  -0.00002   0.00000  -0.00003   0.00000  -0.00002   0.00000  -0.00019   0.00000  -0.00004   0.00000  -0.00000   0.00000  -0.00000   0.00000   0.00000   0.00000  -0.00000   0.00000  -0.00002   0.00000  -0.00001   0.00000  -0.00000   0.00000  -0.00011   0.00000  -0.00007   0.00000  -0.00000   0.00000  -0.00000   0.00000  -0.00000   0.00000  -0.00000   0.00000  -0.00002   0.00000  -0.00000   0.00000  -0.00004   0.00000  -0.00001   0.00000  -0.00001   0.00000  -0.00000   0.00000  -0.00000   0.00000   0.00000   0.00000  -0.00000   0.00000  -0.00019   0.00000  -0.00011   0.00000  -0.00000   0.00000  -0.00023   0.00000  -0.00002   0.00000  -0.00000   0.00000  -0.00000   0.00000  -0.00000   0.00000   0.00000   0.00000  -0.00004   0.00000  -0.00006   0.00000  -0.00001   0.00000  -0.00003   0.00000  -0.00001
-29.32933   0.00000  -0.00106   0.00000  -0.04357   0.00000   0.00001   0.00000  -0.00000   0.00000  -0.00002   0.00000  -0.00000   0.00000  -0.00223   0.00000  -0.00143   0.00000  -0.00000   0.00000  -0.00428   0.00000  -0.00074   0.00000  -0.00000   0.00000   0.00000   0.00000   0.00000   0.00000  -0.00002   0.00000  -0.00001   0.00000   0.00000   0.00000  -0.00030   0.00000  -0.00451   0.00000  -0.00336   0.00000   0.00001   0.00000  -0.00001   0.00000   0.00000   0.00000  -0.00002   0.00000  -0.00452   0.00000  -0.00071   0.00000  -0.00200   0.00000  -0.00214   0.00000  -0.00151   0.00000  -0.00001   0.00000  -0.00002   0.00000   0.00001   0.00000  -0.00004   0.00000  -0.00287   0.00000  -0.00451   0.00000  -0.00091   0.00000  -0.00611   0.00000  -0.00001   0.00000  -0.00000   0.00000   0.00000   0.00000  -0.00000   0.00000  -0.00000   0.00000  -0.00002   0.00000  -0.00003   0.00000  -0.00002   0.00000  -0.00019   0.00000  -0.00004   0.00000  -0.00000   0.00000  -0.00000   0.00000   0.00000   0.00000  -0.00000   0.00000  -0.00002   0.00000  -0.00001   0.00000  -0.00000   0.00000  -0.00011   0.00000  -0.00007   0.00000  -0.00000   0.00000  -0.00000   0.00000  -0.00000   0.00000  -0.00000   0.00000  -0.00002   0.00000  -0.00000   0.00000  -0.00004   0.00000  -0.00001   0.00000  -0.00001   0.00000  -0.00000   0.00000  -0.00000   0.00000   0.00000   0.00000  -0.00000   0.00000  -0.00019   0.00000  -0.00011   0.00000  -0.00000   0.00000  -0.00023   0.00000  -0.00002   0.00000  -0.00000   0.00000  -0.00000   0.00000  -0.00000   0.00000   0.00000   0.00000  -0.00004   0.00000  -0.00006   0.00000  -0.00001   0.00000  -0.00003   0.00000  -0.00001