   2    2    1    1
  1.7647943e+02   4.0381086e-10   4.0381086e-10   1.2497049e-09   0.0000000e+00
            0.000000e+00
  CAR
 DOS and projected DOS file by LOBSTER. Energy is shifted such that the Fermi level lies at 0 eV. 
     20.49748663     -29.55256342  1001       0.47746661       1.00000000
-30.03003   0.00000  10.00000
-29.97998   0.00000  10.00000
-29.92993   0.00000  10.00000
-29.87988   0.00000  10.00000
-29.82983   0.00000  10.00000
-29.77978   0.00000  10.00000
-29.72973   0.00000  10.00000
-29.67968   0.00000  10.00000
-29.62963   0.00000  10.00000
-29.57958   0.00000  10.00000
-29.52953   0.00000  10.00000
-29.47948   0.00000  10.00000
-29.42943   0.00000  10.00000
-29.37938   0.00000  10.00000
-29.32933   0.00000  10.00000
-29.27928   0.00000  10.00000
-29.22923   0.00000  10.00000
-29.17918   0.00000  10.00000
-29.12913   0.00000  10.00000
-29.07908   0.00000  10.00000
-29.02903   0.00000  10.00000
-28.97898   0.00000  10.00000
-28.92893   0.00000  10.00000
-28.87888   0.00000  10.00000
-28.82883   0.00000  10.00000
-28.77878   0.00000  10.00000
-28.72873   0.00000  10.00000
-28.67868   0.00000  10.00000
-28.62863   0.00000  10.00000
-28.57858   0.00000  10.00000
-28.52853   0.00000  10.00000
-28.47848   0.00000  10.00000
-28.42843   0.00000  10.00000
-28.37838   0.00000  10.00000
-28.32833   0.00000  10.00000
-28.27828   0.00000  10.00000
-28.22823   0.00000  10.00000
-28.17818   0.00000  10.00000
-28.12813   0.00000  10.00000
-28.07808   0.00000  10.00000
-28.02803   0.00000  10.00000
-27.97798   0.00000  10.00000
-27.92793   0.00000  10.00000
-27.87788   0.00000  10.00000
-27.82783   0.00000  10.00000
-27.77778   0.00000  10.00000
-27.72773   0.00000  10.00000
-27.67768   0.00000  10.00000
-27.62763   0.00000  10.00000
-27.57758   0.00000  10.00000
-27.52753   0.00000  10.00000
-27.47748   0.00000  10.00000
-27.42743   0.00000  10.00000
-27.37738   0.00000  10.00000
-27.32733   0.00000  10.00000
-27.27728   0.00000  10.00000
-27.22723   0.00000  10.00000
-27.17718   0.00000  10.00000
-27.12713   0.00000  10.00000
-27.07708   0.00000  10.00000
-27.02703   0.00000  10.00000
-26.97698   0.00000  10.00000
-26.92693   0.00000  10.00000
-26.87688   0.00000  10.00000
-26.82683   0.00000  10.00000
-26.77678   0.00000  10.00000
-26.72673   0.00000  10.00000
-26.67668   0.00000  10.00000
-26.62663   0.00000  10.00000
-26.57658   0.00000  10.00000
-26.52653   0.00000  10.00000
-26.47648   0.00000  10.00000
-26.42643   0.00000  10.00000
-26.37638   0.00000  10.00000
-26.32633   0.00000  10.00000
-26.27628   0.00000  10.00000
-26.22623   0.00000  10.00000
-26.17618   0.00000  10.00000
-26.12613   0.00000  10.00000
-26.07608   0.00000  10.00000
-26.02603   0.00000  10.00000
-25.97598   0.00000  10.00000
-25.92593   0.00000  10.00000
-25.87588   0.00000  10.00000
-25.82583   0.00000  10.00000
-25.77578   0.00000  10.00000
-25.72573   0.00000  10.00000
-25.67568   0.00000  10.00000
-25.62563   0.00000  10.00000
-25.57558   0.00000  10.00000
-25.52553   0.00000  10.00000
-25.47548   0.00000  10.00000
-25.42543   0.00000  10.00000
-25.37538   0.00000  10.00000
-25.32533   0.00000  10.00000
-25.27528   0.00000  10.00000
-25.22523   0.00000  10.00000
-25.17518   0.00000  10.00000
-25.12513   0.00000  10.00000
-25.07508   0.00000  10.00000
-25.02503   0.00000  10.00000
-24.97497   0.00000  10.00000
-24.92492   0.00000  10.00000
-24.87487   0.00000  10.00000
-24.82482   0.00000  10.00000
-24.77477   0.00000  10.00000
-24.72472   0.00000  10.00000
-24.67467   0.00000  10.00000
-24.62462   0.00000  10.00000
-24.57457   0.00000  10.00000
-24.52452   0.00000  10.00000
-24.47447   0.00000  10.00000
-24.42442   0.00000  10.00000
-24.37437   0.00000  10.00000
-24.32432   0.00000  10.00000
-24.27427   0.00000  10.00000
-24.22422   0.00000  10.00000
-24.17417   0.00000  10.00000
-24.12412   0.00000  10.00000
-24.07407   0.00000  10.00000
-24.02402   0.00000  10.00000
-23.97397   0.00000  10.00000
-23.92392   0.00000  10.00000
-23.87387   0.00000  10.00000
-23.82382   0.00000  10.00000
-23.77377   0.00000  10.00000
-23.72372   0.00000  10.00000
-23.67367   0.00000  10.00000
-23.62362   0.00000  10.00000
-23.57357   0.00000  10.00000
-23.52352   0.00000  10.00000
-23.47347   0.00000  10.00000
-23.42342   0.00000  10.00000
-23.37337   0.00000  10.00000
-23.32332   0.00000  10.00000
-23.27327   0.00000  10.00000
-23.22322   0.00000  10.00000
-23.17317   0.00000  10.00000
-23.12312   0.00000  10.00000
-23.07307   0.00000  10.00000
-23.02302   0.00000  10.00000
-22.97297   0.00000  10.00000
-22.92292   0.00000  10.00000
-22.87287   0.00000  10.00000
-22.82282   0.00000  10.00000
-22.77277   0.00000  10.00000
-22.72272   0.00000  10.00000
-22.67267   0.00000  10.00000
-22.62262   0.00000  10.00000
-22.57257   0.00000  10.00000
-22.52252   0.00000  10.00000
-22.47247   0.00000  10.00000
-22.42242   0.00000  10.00000
-22.37237   0.00000  10.00000
-22.32232   0.00000  10.00000
-22.27227   0.00000  10.00000
-22.22222   0.00002  10.00000
-22.17217   0.00012  10.00001
-22.12212   0.00064  10.00004
-22.07207   0.00297  10.00019
-22.02202   0.01220  10.00080
-21.97197   0.04447  10.00302
-21.92192   0.14383  10.01022
-21.87187   0.41294  10.03089
-21.82182   1.05281  10.08358
-21.77177   2.38429  10.20292
-21.72172   4.79763  10.44304
-21.67167   8.57927  10.87243
-21.62162  13.63668  11.55495
-21.57157  19.26902  12.51936
-21.52152  24.20691  13.73092
-21.47147  27.03717  15.08413
-21.42142  26.84823  16.42789
-21.37137  23.70121  17.61414
-21.32132  18.59831  18.54498
-21.27127  12.97039  19.19415
-21.22122   8.03752  19.59643
-21.17117   4.42466  19.81788
-21.12112   2.16330  19.92616
-21.07107   0.93911  19.97316
-21.02102   0.36187  19.99127
-20.97097   0.12374  19.99746
-20.92092   0.03754  19.99934
-20.87087   0.01010  19.99985
-20.82082   0.00241  19.99997
-20.77077   0.00051  19.99999
-20.72072   0.00010  20.00000
-20.67067   0.00002  20.00000
-20.62062   0.00000  20.00000
-20.57057   0.00000  20.00000
-20.52052   0.00000  20.00000
-20.47047   0.00000  20.00000
-20.42042   0.00000  20.00000
-20.37037   0.00000  20.00000
-20.32032   0.00000  20.00000
-20.27027   0.00000  20.00000
-20.22022   0.00000  20.00000
-20.17017   0.00000  20.00000
-20.12012   0.00000  20.00000
-20.07007   0.00000  20.00000
-20.02002   0.00000  20.00000
-19.96997   0.00000  20.00000
-19.91992   0.00000  20.00000
-19.86987   0.00000  20.00000
-19.81982   0.00000  20.00000
-19.76977   0.00000  20.00000
-19.71972   0.00000  20.00000
-19.66967   0.00000  20.00000
-19.61962   0.00000  20.00000
-19.56957   0.00000  20.00000
-19.51952   0.00000  20.00000
-19.46947   0.00000  20.00000
-19.41942   0.00000  20.00000
-19.36937   0.00000  20.00000
-19.31932   0.00000  20.00000
-19.26927   0.00000  20.00000
-19.21922   0.00000  20.00000
-19.16917   0.00000  20.00000
-19.11912   0.00000  20.00000
-19.06907   0.00000  20.00000
-19.01902   0.00000  20.00000
-18.96897   0.00000  20.00000
-18.91892   0.00000  20.00000
-18.86887   0.00000  20.00000
-18.81882   0.00000  20.00000
-18.76877   0.00000  20.00000
-18.71872   0.00000  20.00000
-18.66867   0.00000  20.00000
-18.61862   0.00000  20.00000
-18.56857   0.00000  20.00000
-18.51852   0.00000  20.00000
-18.46847   0.00000  20.00000
-18.41842   0.00000  20.00000
-18.36837   0.00000  20.00000
-18.31832   0.00000  20.00000
-18.26827   0.00000  20.00000
-18.21822   0.00000  20.00000
-18.16817   0.00000  20.00000
-18.11812   0.00000  20.00000
-18.06807   0.00000  20.00000
-18.01802   0.00000  20.00000
-17.96797   0.00000  20.00000
-17.91792   0.00000  20.00000
-17.86787   0.00000  20.00000
-17.81782   0.00000  20.00000
-17.76777   0.00000  20.00000
-17.71772   0.00000  20.00000
-17.66767   0.00000  20.00000
-17.61762   0.00000  20.00000
-17.56757   0.00000  20.00000
-17.51752   0.00000  20.00000
-17.46747   0.00000  20.00000
-17.41742   0.00000  20.00000
-17.36737   0.00000  20.00000
-17.31732   0.00000  20.00000
-17.26727   0.00000  20.00000
-17.21722   0.00000  20.00000
-17.16717   0.00000  20.00000
-17.11712   0.00000  20.00000
-17.06707   0.00000  20.00000
-17.01702   0.00000  20.00000
-16.96697   0.00000  20.00000
-16.91692   0.00000  20.00000
-16.86687   0.00000  20.00000
-16.81682   0.00000  20.00000
-16.76677   0.00000  20.00000
-16.71672   0.00000  20.00000
-16.66667   0.00000  20.00000
-16.61662   0.00000  20.00000
-16.56657   0.00000  20.00000
-16.51652   0.00000  20.00000
-16.46647   0.00000  20.00000
-16.41642   0.00000  20.00000
-16.36637   0.00000  20.00000
-16.31632   0.00000  20.00000
-16.26627   0.00000  20.00000
-16.21622   0.00000  20.00000
-16.16617   0.00000  20.00000
-16.11612   0.00000  20.00000
-16.06607   0.00000  20.00000
-16.01602   0.00000  20.00000
-15.96597   0.00000  20.00000
-15.91592   0.00000  20.00000
-15.86587   0.00000  20.00000
-15.81582   0.00000  20.00000
-15.76577   0.00000  20.00000
-15.71572   0.00000  20.00000
-15.66567   0.00000  20.00000
-15.61562   0.00000  20.00000
-15.56557   0.00000  20.00000
-15.51552   0.00000  20.00000
-15.46547   0.00000  20.00000
-15.41542   0.00000  20.00000
-15.36537   0.00000  20.00000
-15.31532   0.00000  20.00000
-15.26527   0.00000  20.00000
-15.21522   0.00000  20.00000
-15.16517   0.00000  20.00000
-15.11512   0.00000  20.00000
-15.06507   0.00000  20.00000
-15.01502   0.00000  20.00000
-14.96496   0.00000  20.00000
-14.91491   0.00000  20.00000
-14.86486   0.00000  20.00000
-14.81481   0.00000  20.00000
-14.76476   0.00000  20.00000
-14.71471   0.00000  20.00000
-14.66466   0.00000  20.00000
-14.61461   0.00000  20.00000
-14.56456   0.00000  20.00000
-14.51451   0.00000  20.00000
-14.46446   0.00000  20.00000
-14.41441   0.00000  20.00000
-14.36436   0.00000  20.00000
-14.31431   0.00000  20.00000
-14.26426   0.00000  20.00000
-14.21421   0.00000  20.00000
-14.16416   0.00000  20.00000
-14.11411   0.00000  20.00000
-14.06406   0.00000  20.00000
-14.01401   0.00000  20.00000
-13.96396   0.00000  20.00000
-13.91391   0.00000  20.00000
-13.86386   0.00000  20.00000
-13.81381   0.00000  20.00000
-13.76376   0.00000  20.00000
-13.71371   0.00000  20.00000
-13.66366   0.00000  20.00000
-13.61361   0.00000  20.00000
-13.56356   0.00000  20.00000
-13.51351   0.00000  20.00000
-13.46346   0.00000  20.00000
-13.41341   0.00000  20.00000
-13.36336   0.00000  20.00000
-13.31331   0.00000  20.00000
-13.26326   0.00000  20.00000
-13.21321   0.00000  20.00000
-13.16316   0.00001  20.00000
-13.11311   0.00005  20.00000
-13.06306   0.00019  20.00001
-13.01301   0.00068  20.00005
-12.96296   0.00213  20.00015
-12.91291   0.00594  20.00045
-12.86286   0.01480  20.00119
-12.81281   0.03306  20.00285
-12.76276   0.06635  20.00617
-12.71271   0.12006  20.01218
-12.66266   0.19679  20.02203
-12.61261   0.29393  20.03674
-12.56256   0.40299  20.05691
-12.51251   0.51182  20.08252
-12.46246   0.60869  20.11299
-12.41241   0.68617  20.14733
-12.36236   0.74272  20.18450
-12.31231   0.78156  20.22362
-12.26226   0.80811  20.26407
-12.21221   0.82767  20.30549
-12.16216   0.84418  20.34774
-12.11211   0.86006  20.39079
-12.06206   0.87664  20.43466
-12.01201   0.89464  20.47944
-11.96196   0.91451  20.52521
-11.91191   0.93668  20.57209
-11.86186   0.96165  20.62022
-11.81181   0.99004  20.66978
-11.76176   1.02275  20.72096
-11.71171   1.06103  20.77407
-11.66166   1.10679  20.82946
-11.61161   1.16278  20.88766
-11.56156   1.23282  20.94936
-11.51151   1.32142  21.01550
-11.46146   1.43219  21.08718
-11.41141   1.56483  21.16550
-11.36136   1.71104  21.25114
-11.31131   1.85165  21.34381
-11.26126   1.95779  21.44180
-11.21121   1.99754  21.54178
-11.16116   1.94635  21.63919
-11.11111   1.79643  21.72911
-11.06106   1.56065  21.80722
-11.01101   1.26926  21.87074
-10.96096   0.96130  21.91886
-10.91091   0.67429  21.95260
-10.86086   0.43553  21.97440
-10.81081   0.25755  21.98729
-10.76076   0.13868  21.99423
-10.71071   0.06766  21.99762
-10.66066   0.02978  21.99911
-10.61061   0.01178  21.99970
-10.56056   0.00418  21.99991
-10.51051   0.00132  21.99998
-10.46046   0.00037  21.99999
-10.41041   0.00009  22.00000
-10.36036   0.00002  22.00000
-10.31031   0.00000  22.00000
-10.26026   0.00000  22.00000
-10.21021   0.00000  22.00000
-10.16016   0.00000  22.00000
-10.11011   0.00000  22.00000
-10.06006   0.00000  22.00000
-10.01001   0.00000  22.00000
 -9.95996   0.00000  22.00000
 -9.90991   0.00000  22.00000
 -9.85986   0.00000  22.00000
 -9.80981  -0.00000  22.00000
 -9.75976   0.00000  22.00000
 -9.70971   0.00000  22.00000
 -9.65966   0.00000  22.00000
 -9.60961   0.00000  22.00000
 -9.55956   0.00000  22.00000
 -9.50951   0.00000  22.00000
 -9.45946   0.00000  22.00000
 -9.40941   0.00000  22.00000
 -9.35936   0.00000  22.00000
 -9.30931   0.00000  22.00000
 -9.25926   0.00000  22.00000
 -9.20921   0.00000  22.00000
 -9.15916   0.00000  22.00000
 -9.10911   0.00000  22.00000
 -9.05906   0.00000  22.00000
 -9.00901   0.00000  22.00000
 -8.95896   0.00000  22.00000
 -8.90891   0.00000  22.00000
 -8.85886   0.00000  22.00000
 -8.80881   0.00000  22.00000
 -8.75876   0.00000  22.00000
 -8.70871   0.00000  22.00000
 -8.65866   0.00000  22.00000
 -8.60861   0.00000  22.00000
 -8.55856   0.00000  22.00000
 -8.50851   0.00000  22.00000
 -8.45846   0.00000  22.00000
 -8.40841   0.00000  22.00000
 -8.35836   0.00000  22.00000
 -8.30831   0.00000  22.00000
 -8.25826   0.00000  22.00000
 -8.20821   0.00000  22.00000
 -8.15816   0.00000  22.00000
 -8.10811   0.00000  22.00000
 -8.05806   0.00001  22.00000
 -8.00801   0.00007  22.00000
 -7.95796   0.00031  22.00002
 -7.90791   0.00121  22.00008
 -7.85786   0.00420  22.00029
 -7.80781   0.01297  22.00094
 -7.75776   0.03562  22.00272
 -7.70771   0.08707  22.00708
 -7.65766   0.18965  22.01657
 -7.60761   0.36866  22.03502
 -7.55756   0.64086  22.06710
 -7.50751   0.99900  22.11710
 -7.45746   1.40190  22.18726
 -7.40741   1.78046  22.27638
 -7.35736   2.06189  22.37957
 -7.30731   2.20007  22.48969
 -7.25726   2.19378  22.59949
 -7.20721   2.08225  22.70370
 -7.15716   1.92359  22.79998
 -7.10711   1.77195  22.88866
 -7.05706   1.66557  22.97203
 -7.00701   1.62694  23.05346
 -6.95696   1.66689  23.13688
 -6.90691   1.78392  23.22617
 -6.85686   1.95650  23.32409
 -6.80681   2.13569  23.43098
 -6.75676   2.25011  23.54360
 -6.70671   2.22959  23.65519
 -6.65666   2.03841  23.75721
 -6.60661   1.69704  23.84215
 -6.55656   1.27531  23.90598
 -6.50651   0.86008  23.94903
 -6.45646   0.51850  23.97498
 -6.40641   0.27867  23.98893
 -6.35636   0.13327  23.99560
 -6.30631   0.05664  23.99843
 -6.25626   0.02137  23.99950
 -6.20621   0.00715  23.99986
 -6.15616   0.00212  23.99996
 -6.10611   0.00056  23.99999
 -6.05606   0.00013  24.00000
 -6.00601   0.00003  24.00000
 -5.95596   0.00000  24.00000
 -5.90591   0.00000  24.00000
 -5.85586   0.00000  24.00000
 -5.80581   0.00000  24.00000
 -5.75576   0.00000  24.00000
 -5.70571   0.00000  24.00000
 -5.65566   0.00000  24.00000
 -5.60561   0.00000  24.00000
 -5.55556   0.00000  24.00000
 -5.50551   0.00000  24.00000
 -5.45546   0.00000  24.00000
 -5.40541   0.00000  24.00000
 -5.35536   0.00000  24.00000
 -5.30531   0.00000  24.00000
 -5.25526   0.00000  24.00000
 -5.20521   0.00000  24.00000
 -5.15516   0.00000  24.00000
 -5.10511   0.00000  24.00000
 -5.05506   0.00000  24.00000
 -5.00501   0.00000  24.00000
 -4.95495   0.00000  24.00000
 -4.90490   0.00000  24.00000
 -4.85485   0.00000  24.00000
 -4.80480   0.00000  24.00000
 -4.75475   0.00001  24.00000
 -4.70470   0.00004  24.00000
 -4.65465   0.00016  24.00001
 -4.60460   0.00055  24.00004
 -4.55455   0.00170  24.00012
 -4.50450   0.00468  24.00036
 -4.45445   0.01151  24.00093
 -4.40440   0.02538  24.00220
 -4.35435   0.05041  24.00473
 -4.30430   0.09054  24.00926
 -4.25425   0.14803  24.01667
 -4.20420   0.22247  24.02780
 -4.15415   0.31173  24.04340
 -4.10410   0.41568  24.06421
 -4.05405   0.54158  24.09131
 -4.00400   0.70781  24.12674
 -3.95395   0.94118  24.17385
 -3.90390   1.26473  24.23715
 -3.85385   1.67802  24.32113
 -3.80380   2.14027  24.42825
 -3.75375   2.57051  24.55691
 -3.70370   2.87258  24.70068
 -3.65365   2.97546  24.84960
 -3.60360   2.86563  24.99303
 -3.55355   2.59097  25.12270
 -3.50350   2.23549  25.23459
 -3.45345   1.88338  25.32885
 -3.40340   1.59376  25.40862
 -3.35335   1.39439  25.47841
 -3.30330   1.28871  25.54291
 -3.25325   1.26633  25.60629
 -3.20320   1.31038  25.67188
 -3.15315   1.40067  25.74198
 -3.10310   1.51395  25.81775
 -3.05305   1.62399  25.89903
 -3.00300   1.70395  25.98432
 -2.95295   1.73229  26.07102
 -2.90290   1.70008  26.15611
 -2.85285   1.61508  26.23694
 -2.80280   1.49884  26.31196
 -2.75275   1.37792  26.38092
 -2.70270   1.27421  26.44470
 -2.65265   1.19942  26.50473
 -2.60260   1.15534  26.56255
 -2.55255   1.13770  26.61949
 -2.50250   1.14071  26.67659
 -2.45245   1.15993  26.73464
 -2.40240   1.19301  26.79435
 -2.35235   1.23930  26.85638
 -2.30230   1.29993  26.92144
 -2.25225   1.37913  26.99047
 -2.20220   1.48528  27.06480
 -2.15215   1.62874  27.14632
 -2.10210   1.81498  27.23716
 -2.05205   2.03556  27.33904
 -2.00200   2.26358  27.45233
 -1.95195   2.45929  27.57542
 -1.90190   2.58533  27.70482
 -1.85185   2.62309  27.83610
 -1.80180   2.58023  27.96524
 -1.75175   2.48569  28.08965
 -1.70170   2.37666  28.20860
 -1.65165   2.28647  28.32304
 -1.60160   2.23920  28.43511
 -1.55155   2.25071  28.54776
 -1.50150   2.33094  28.66443
 -1.45145   2.48123  28.78861
 -1.40140   2.68494  28.92299
 -1.35135   2.89741  29.06801
 -1.30130   3.04723  29.22052
 -1.25125   3.05724  29.37354
 -1.20120   2.87933  29.51765
 -1.15115   2.52207  29.64388
 -1.10110   2.05081  29.74652
 -1.05105   1.55786  29.82449
 -1.00100   1.12233  29.88067
 -0.95095   0.78417  29.91991
 -0.90090   0.54350  29.94712
 -0.85085   0.37773  29.96602
 -0.80080   0.26104  29.97909
 -0.75075   0.17533  29.98786
 -0.70070   0.11156  29.99344
 -0.65065   0.06585  29.99674
 -0.60060   0.03555  29.99852
 -0.55055   0.01738  29.99939
 -0.50050   0.00765  29.99977
 -0.45045   0.00302  29.99992
 -0.40040   0.00107  29.99998
 -0.35035   0.00034  29.99999
 -0.30030   0.00009  30.00000
 -0.25025   0.00002  30.00000
 -0.20020   0.00001  30.00000
 -0.15015   0.00000  30.00000
 -0.10010   0.00000  30.00000
 -0.05005   0.00000  30.00000
 -0.00000   0.00000  30.00000
  0.05005   0.00000  30.00000
  0.10010   0.00000  30.00000
  0.15015   0.00000  30.00000
  0.20020   0.00000  30.00000
  0.25025   0.00002  30.00000
  0.30030   0.00009  30.00001
  0.35035   0.00035  30.00002
  0.40040   0.00122  30.00008
  0.45045   0.00384  30.00028
  0.50050   0.01084  30.00082
  0.55055   0.02736  30.00219
  0.60060   0.06209  30.00530
  0.65065   0.12698  30.01165
  0.70070   0.23504  30.02341
  0.75075   0.39577  30.04322
  0.80080   0.61005  30.07376
  0.85085   0.86736  30.11717
  0.90090   1.14780  30.17461
  0.95095   1.42836  30.24610
  1.00100   1.69031  30.33070
  1.05105   1.92378  30.42699
  1.10110   2.12714  30.53345
  1.15115   2.30176  30.64866
  1.20120   2.44496  30.77103
  1.25125   2.54559  30.89843
  1.30130   2.58591  31.02786
  1.35135   2.55016  31.15549
  1.40140   2.43468  31.27735
  1.45145   2.25256  31.39009
  1.50150   2.02927  31.49166
  1.55155   1.79280  31.58139
  1.60160   1.56514  31.65972
  1.65165   1.35895  31.72774
  1.70170   1.17865  31.78673
  1.75175   1.02317  31.83794
  1.80180   0.88931  31.88245
  1.85185   0.77605  31.92129
  1.90190   0.68839  31.95574
  1.95195   0.63797  31.98767
  2.00200   0.63880  32.01964
  2.05205   0.70026  32.05469
  2.10210   0.82174  32.09582
  2.15215   0.99215  32.14548
  2.20220   1.19409  32.20524
  2.25225   1.40944  32.27579
  2.30230   1.62322  32.35703
  2.35235   1.82439  32.44834
  2.40240   2.00508  32.54869
  2.45245   2.16023  32.65681
  2.50250   2.28822  32.77134
  2.55255   2.39116  32.89102
  2.60260   2.47330  33.01480
  2.65265   2.53835  33.14185
  2.70270   2.58849  33.27140
  2.75275   2.62661  33.40287
  2.80280   2.65954  33.53598
  2.85285   2.69869  33.67105
  2.90290   2.75660  33.80901
  2.95295   2.84217  33.95126
  3.00300   2.95888  34.09936
  3.05305   3.10718  34.25487
  3.10310   3.28638  34.41935
  3.15315   3.49026  34.59404
  3.20320   3.69570  34.77901
  3.25325   3.85369  34.97189
  3.30330   3.89545  35.16686
  3.35335   3.75765  35.35493
  3.40340   3.41475  35.52584
  3.45345   2.89730  35.67085
  3.50350   2.28300  35.78511
  3.55355   1.66629  35.86851
  3.60360   1.12519  35.92482
  3.65365   0.70240  35.95998
  3.70370   0.40478  35.98024
  3.75375   0.21482  35.99099
  3.80380   0.10461  35.99623
  3.85385   0.04653  35.99855
  3.90390   0.01882  35.99950
  3.95395   0.00689  35.99984
  4.00400   0.00227  35.99995
  4.05405   0.00067  35.99999
  4.10410   0.00018  36.00000
  4.15415   0.00004  36.00000
  4.20420   0.00001  36.00000
  4.25425   0.00000  36.00000
  4.30430   0.00000  36.00000
  4.35435   0.00000  36.00000
  4.40440   0.00000  36.00000
  4.45445   0.00000  36.00000
  4.50450   0.00000  36.00000
  4.55455   0.00000  36.00000
  4.60460   0.00000  36.00000
  4.65465   0.00000  36.00000
  4.70470  -0.00000  36.00000
  4.75475  -0.00000  36.00000
  4.80480   0.00000  36.00000
  4.85485   0.00000  36.00000
  4.90490   0.00000  36.00000
  4.95495   0.00000  36.00000
  5.00501   0.00000  36.00000
  5.05506   0.00000  36.00000
  5.10511   0.00000  36.00000
  5.15516   0.00000  36.00000
  5.20521   0.00000  36.00000
  5.25526   0.00000  36.00000
  5.30531   0.00000  36.00000
  5.35536   0.00000  36.00000
  5.40541   0.00000  36.00000
  5.45546   0.00000  36.00000
  5.50551   0.00000  36.00000
  5.55556   0.00000  36.00000
  5.60561   0.00000  36.00000
  5.65566   0.00000  36.00000
  5.70571   0.00000  36.00000
  5.75576   0.00000  36.00000
  5.80581   0.00000  36.00000
  5.85586   0.00000  36.00000
  5.90591   0.00000  36.00000
  5.95596   0.00000  36.00000
  6.00601   0.00000  36.00000
  6.05606   0.00000  36.00000
  6.10611   0.00000  36.00000
  6.15616   0.00000  36.00000
  6.20621   0.00000  36.00000
  6.25626   0.00000  36.00000
  6.30631   0.00000  36.00000
  6.35636   0.00000  36.00000
  6.40641   0.00000  36.00000
  6.45646   0.00000  36.00000
  6.50651   0.00000  36.00000
  6.55656   0.00000  36.00000
  6.60661   0.00000  36.00000
  6.65666   0.00000  36.00000
  6.70671   0.00000  36.00000
  6.75676   0.00000  36.00000
  6.80681   0.00000  36.00000
  6.85686   0.00000  36.00000
  6.90691   0.00000  36.00000
  6.95696   0.00000  36.00000
  7.00701   0.00000  36.00000
  7.05706   0.00000  36.00000
  7.10711   0.00000  36.00000
  7.15716   0.00000  36.00000
  7.20721   0.00000  36.00000
  7.25726   0.00000  36.00000
  7.30731   0.00000  36.00000
  7.35736   0.00000  36.00000
  7.40741   0.00000  36.00000
  7.45746   0.00000  36.00000
  7.50751   0.00000  36.00000
  7.55756   0.00000  36.00000
  7.60761   0.00000  36.00000
  7.65766   0.00000  36.00000
  7.70771   0.00000  36.00000
  7.75776   0.00000  36.00000
  7.80781   0.00000  36.00000
  7.85786   0.00000  36.00000
  7.90791   0.00000  36.00000
  7.95796   0.00000  36.00000
  8.00801   0.00000  36.00000
  8.05806   0.00000  36.00000
  8.10811   0.00000  36.00000
  8.15816   0.00000  36.00000
  8.20821   0.00000  36.00000
  8.25826   0.00000  36.00000
  8.30831   0.00000  36.00000
  8.35836   0.00000  36.00000
  8.40841   0.00000  36.00000
  8.45846   0.00000  36.00000
  8.50851   0.00000  36.00000
  8.55856   0.00000  36.00000
  8.60861   0.00000  36.00000
  8.65866   0.00000  36.00000
  8.70871   0.00000  36.00000
  8.75876   0.00000  36.00000
  8.80881   0.00000  36.00000
  8.85886   0.00000  36.00000
  8.90891   0.00000  36.00000
  8.95896   0.00000  36.00000
  9.00901   0.00000  36.00000
  9.05906   0.00000  36.00000
  9.10911   0.00000  36.00000
  9.15916   0.00000  36.00000
  9.20921   0.00000  36.00000
  9.25926   0.00000  36.00000
  9.30931   0.00000  36.00000
  9.35936   0.00000  36.00000
  9.40941   0.00000  36.00000
  9.45946   0.00000  36.00000
  9.50951   0.00000  36.00000
  9.55956   0.00000  36.00000
  9.60961   0.00000  36.00000
  9.65966   0.00000  36.00000
  9.70971   0.00000  36.00000
  9.75976   0.00000  36.00000
  9.80981   0.00000  36.00000
  9.85986   0.00000  36.00000
  9.90991   0.00000  36.00000
  9.95996   0.00000  36.00000
 10.01001   0.00000  36.00000
 10.06006   0.00000  36.00000
 10.11011   0.00000  36.00000
 10.16016   0.00000  36.00000
 10.21021   0.00000  36.00000
 10.26026   0.00000  36.00000
 10.31031   0.00000  36.00000
 10.36036   0.00000  36.00000
 10.41041   0.00000  36.00000
 10.46046   0.00000  36.00000
 10.51051   0.00000  36.00000
 10.56056   0.00000  36.00000
 10.61061   0.00000  36.00000
 10.66066   0.00000  36.00000
 10.71071   0.00000  36.00000
 10.76076   0.00000  36.00000
 10.81081   0.00000  36.00000
 10.86086   0.00000  36.00000
 10.91091   0.00000  36.00000
 10.96096   0.00000  36.00000
 11.01101   0.00000  36.00000
 11.06106   0.00000  36.00000
 11.11111   0.00000  36.00000
 11.16116   0.00000  36.00000
 11.21121   0.00000  36.00000
 11.26126   0.00000  36.00000
 11.31131   0.00000  36.00000
 11.36136   0.00000  36.00000
 11.41141   0.00000  36.00000
 11.46146   0.00000  36.00000
 11.51151   0.00000  36.00000
 11.56156   0.00000  36.00000
 11.61161   0.00000  36.00000
 11.66166   0.00000  36.00000
 11.71171   0.00000  36.00000
 11.76176   0.00000  36.00000
 11.81181   0.00000  36.00000
 11.86186   0.00000  36.00000
 11.91191   0.00000  36.00000
 11.96196   0.00000  36.00000
 12.01201   0.00000  36.00000
 12.06206   0.00000  36.00000
 12.11211   0.00000  36.00000
 12.16216   0.00000  36.00000
 12.21221   0.00000  36.00000
 12.26226   0.00000  36.00000
 12.31231   0.00000  36.00000
 12.36236   0.00000  36.00000
 12.41241   0.00000  36.00000
 12.46246   0.00000  36.00000
 12.51251   0.00000  36.00000
 12.56256   0.00000  36.00000
 12.61261   0.00000  36.00000
 12.66266   0.00000  36.00000
 12.71271   0.00000  36.00000
 12.76276   0.00000  36.00000
 12.81281   0.00000  36.00000
 12.86286   0.00000  36.00000
 12.91291   0.00000  36.00000
 12.96296   0.00000  36.00000
 13.01301   0.00000  36.00000
 13.06306   0.00000  36.00000
 13.11311   0.00000  36.00000
 13.16316   0.00000  36.00000
 13.21321   0.00000  36.00000
 13.26326   0.00000  36.00000
 13.31331   0.00000  36.00000
 13.36336   0.00000  36.00000
 13.41341   0.00000  36.00000
 13.46346   0.00000  36.00000
 13.51351   0.00000  36.00000
 13.56356   0.00000  36.00000
 13.61361   0.00000  36.00000
 13.66366   0.00000  36.00000
 13.71371   0.00000  36.00000
 13.76376   0.00000  36.00000
 13.81381   0.00000  36.00000
 13.86386   0.00000  36.00000
 13.91391   0.00000  36.00000
 13.96396   0.00000  36.00000
 14.01401   0.00000  36.00000
 14.06406   0.00000  36.00000
 14.11411   0.00000  36.00000
 14.16416   0.00000  36.00000
 14.21421   0.00000  36.00000
 14.26426   0.00000  36.00000
 14.31431   0.00000  36.00000
 14.36436   0.00000  36.00000
 14.41441   0.00000  36.00000
 14.46446   0.00000  36.00000
 14.51451   0.00000  36.00000
 14.56456   0.00000  36.00000
 14.61461   0.00000  36.00000
 14.66466   0.00000  36.00000
 14.71471   0.00000  36.00000
 14.76476   0.00000  36.00000
 14.81481   0.00000  36.00000
 14.86486   0.00000  36.00000
 14.91491   0.00000  36.00000
 14.96496   0.00000  36.00000
 15.01502   0.00000  36.00000
 15.06507   0.00000  36.00000
 15.11512   0.00000  36.00000
 15.16517   0.00000  36.00000
 15.21522   0.00000  36.00000
 15.26527   0.00000  36.00000
 15.31532   0.00000  36.00000
 15.36537   0.00000  36.00000
 15.41542   0.00000  36.00000
 15.46547   0.00000  36.00000
 15.51552   0.00000  36.00000
 15.56557   0.00000  36.00000
 15.61562   0.00000  36.00000
 15.66567   0.00000  36.00000
 15.71572   0.00000  36.00000
 15.76577   0.00000  36.00000
 15.81582   0.00000  36.00000
 15.86587   0.00000  36.00000
 15.91592   0.00000  36.00000
 15.96597   0.00000  36.00000
 16.01602   0.00000  36.00000
 16.06607   0.00000  36.00000
 16.11612   0.00000  36.00000
 16.16617   0.00000  36.00000
 16.21622   0.00000  36.00000
 16.26627   0.00000  36.00000
 16.31632   0.00000  36.00000
 16.36637   0.00000  36.00000
 16.41642   0.00000  36.00000
 16.46647   0.00000  36.00000
 16.51652   0.00000  36.00000
 16.56657   0.00000  36.00000
 16.61662   0.00000  36.00000
 16.66667   0.00000  36.00000
 16.71672   0.00000  36.00000
 16.76677   0.00000  36.00000
 16.81682   0.00000  36.00000
 16.86687   0.00000  36.00000
 16.91692   0.00000  36.00000
 16.96697   0.00000  36.00000
 17.01702   0.00000  36.00000
 17.06707   0.00000  36.00000
 17.11712   0.00000  36.00000
 17.16717   0.00000  36.00000
 17.21722   0.00000  36.00000
 17.26727   0.00000  36.00000
 17.31732   0.00000  36.00000
 17.36737   0.00000  36.00000
 17.41742   0.00000  36.00000
 17.46747   0.00000  36.00000
 17.51752   0.00000  36.00000
 17.56757   0.00000  36.00000
 17.61762   0.00000  36.00000
 17.66767   0.00000  36.00000
 17.71772   0.00000  36.00000
 17.76777   0.00000  36.00000
 17.81782   0.00000  36.00000
 17.86787   0.00000  36.00000
 17.91792   0.00000  36.00000
 17.96797   0.00000  36.00000
 18.01802   0.00000  36.00000
 18.06807   0.00000  36.00000
 18.11812   0.00000  36.00000
 18.16817   0.00000  36.00000
 18.21822   0.00000  36.00000
 18.26827   0.00000  36.00000
 18.31832   0.00000  36.00000
 18.36837   0.00000  36.00000
 18.41842   0.00000  36.00000
 18.46847   0.00000  36.00000
 18.51852   0.00000  36.00000
 18.56857   0.00000  36.00000
 18.61862   0.00000  36.00000
 18.66867   0.00000  36.00000
 18.71872   0.00000  36.00000
 18.76877   0.00000  36.00000
 18.81882   0.00000  36.00000
 18.86887   0.00000  36.00000
 18.91892   0.00000  36.00000
 18.96897   0.00000  36.00000
 19.01902   0.00000  36.00000
 19.06907   0.00000  36.00000
 19.11912   0.00000  36.00000
 19.16917   0.00000  36.00000
 19.21922   0.00000  36.00000
 19.26927   0.00000  36.00000
 19.31932   0.00000  36.00000
 19.36937   0.00000  36.00000
 19.41942   0.00000  36.00000