  COHP#       atomMU       atomNU     distance     translation      ICOHP (at) eF   for spin  1
      1          Sn1          Te2      2.88049       0   0   0           -2.87727 
      1       Sn1_5s       Te2_5s      2.88049       0   0   0           -0.03921 
      1       Sn1_5s     Te2_5p_y      2.88049       0   0   0           -0.05119 
      1       Sn1_5s     Te2_5p_z      2.88049       0   0   0           -0.04704 
      1       Sn1_5s     Te2_5p_x      2.88049       0   0   0           -0.15357 
      1       Sn1_5s    Te2_4d_xy      2.88049       0   0   0           -0.00069 
      1       Sn1_5s    Te2_4d_yz      2.88049       0   0   0           -0.00023 
      1       Sn1_5s   Te2_4d_z^2      2.88049       0   0   0           -0.00001 
      1       Sn1_5s    Te2_4d_xz      2.88049       0   0   0           -0.00070 
      1       Sn1_5s Te2_4d_x^2-y^2      2.88049       0   0   0           -0.00023 
      1     Sn1_5p_y       Te2_5s      2.88049       0   0   0           -0.09516 
      1     Sn1_5p_y     Te2_5p_y      2.88049       0   0   0            0.00354 
      1     Sn1_5p_y     Te2_5p_z      2.88049       0   0   0           -0.12684 
      1     Sn1_5p_y     Te2_5p_x      2.88049       0   0   0           -0.23533 
      1     Sn1_5p_y    Te2_4d_xy      2.88049       0   0   0            0.00001 
      1     Sn1_5p_y    Te2_4d_yz      2.88049       0   0   0           -0.00001 
      1     Sn1_5p_y   Te2_4d_z^2      2.88049       0   0   0           -0.00014 
      1     Sn1_5p_y    Te2_4d_xz      2.88049       0   0   0           -0.00290 
      1     Sn1_5p_y Te2_4d_x^2-y^2      2.88049       0   0   0           -0.00217 
      1     Sn1_5p_z       Te2_5s      2.88049       0   0   0           -0.24987 
      1     Sn1_5p_z     Te2_5p_y      2.88049       0   0   0           -0.14739 
      1     Sn1_5p_z     Te2_5p_z      2.88049       0   0   0           -0.05484 
      1     Sn1_5p_z     Te2_5p_x      2.88049       0   0   0           -0.44218 
      1     Sn1_5p_z    Te2_4d_xy      2.88049       0   0   0           -0.00309 
      1     Sn1_5p_z    Te2_4d_yz      2.88049       0   0   0           -0.00061 
      1     Sn1_5p_z   Te2_4d_z^2      2.88049       0   0   0           -0.00095 
      1     Sn1_5p_z    Te2_4d_xz      2.88049       0   0   0           -0.00182 
      1     Sn1_5p_z Te2_4d_x^2-y^2      2.88049       0   0   0           -0.00103 
      1     Sn1_5p_x       Te2_5s      2.88049       0   0   0           -0.28550 
      1     Sn1_5p_x     Te2_5p_y      2.88049       0   0   0           -0.23533 
      1     Sn1_5p_x     Te2_5p_z      2.88049       0   0   0           -0.38052 
      1     Sn1_5p_x     Te2_5p_x      2.88049       0   0   0           -0.29232 
      1     Sn1_5p_x    Te2_4d_xy      2.88049       0   0   0           -0.00219 
      1     Sn1_5p_x    Te2_4d_yz      2.88049       0   0   0           -0.00290 
      1     Sn1_5p_x   Te2_4d_z^2      2.88049       0   0   0           -0.00043 
      1     Sn1_5p_x    Te2_4d_xz      2.88049       0   0   0           -0.00444 
      1     Sn1_5p_x Te2_4d_x^2-y^2      2.88049       0   0   0            0.00001 
      1    Sn1_4d_xy       Te2_5s      2.88049       0   0   0           -0.00073 
      1    Sn1_4d_xy     Te2_5p_y      2.88049       0   0   0           -0.00007 
      1    Sn1_4d_xy     Te2_5p_z      2.88049       0   0   0           -0.00242 
      1    Sn1_4d_xy     Te2_5p_x      2.88049       0   0   0           -0.00149 
      1    Sn1_4d_xy    Te2_4d_xy      2.88049       0   0   0           -0.00000 
      1    Sn1_4d_xy    Te2_4d_yz      2.88049       0   0   0           -0.00000 
      1    Sn1_4d_xy   Te2_4d_z^2      2.88049       0   0   0           -0.00000 
      1    Sn1_4d_xy    Te2_4d_xz      2.88049       0   0   0           -0.00001 
      1    Sn1_4d_xy Te2_4d_x^2-y^2      2.88049       0   0   0            0.00000 
      1    Sn1_4d_yz       Te2_5s      2.88049       0   0   0           -0.00035 
      1    Sn1_4d_yz     Te2_5p_y      2.88049       0   0   0            0.00002 
      1    Sn1_4d_yz     Te2_5p_z      2.88049       0   0   0           -0.00082 
      1    Sn1_4d_yz     Te2_5p_x      2.88049       0   0   0           -0.00261 
      1    Sn1_4d_yz    Te2_4d_xy      2.88049       0   0   0           -0.00000 
      1    Sn1_4d_yz    Te2_4d_yz      2.88049       0   0   0            0.00000 
      1    Sn1_4d_yz   Te2_4d_z^2      2.88049       0   0   0            0.00000 
      1    Sn1_4d_yz    Te2_4d_xz      2.88049       0   0   0           -0.00001 
      1    Sn1_4d_yz Te2_4d_x^2-y^2      2.88049       0   0   0           -0.00000 
      1   Sn1_4d_z^2       Te2_5s      2.88049       0   0   0            0.00001 
      1   Sn1_4d_z^2     Te2_5p_y      2.88049       0   0   0           -0.00006 
      1   Sn1_4d_z^2     Te2_5p_z      2.88049       0   0   0           -0.00031 
      1   Sn1_4d_z^2     Te2_5p_x      2.88049       0   0   0           -0.00018 
      1   Sn1_4d_z^2    Te2_4d_xy      2.88049       0   0   0            0.00000 
      1   Sn1_4d_z^2    Te2_4d_yz      2.88049       0   0   0            0.00000 
      1   Sn1_4d_z^2   Te2_4d_z^2      2.88049       0   0   0            0.00000 
      1   Sn1_4d_z^2    Te2_4d_xz      2.88049       0   0   0            0.00000 
      1   Sn1_4d_z^2 Te2_4d_x^2-y^2      2.88049       0   0   0            0.00000 
      1    Sn1_4d_xz       Te2_5s      2.88049       0   0   0           -0.00104 
      1    Sn1_4d_xz     Te2_5p_y      2.88049       0   0   0           -0.00261 
      1    Sn1_4d_xz     Te2_5p_z      2.88049       0   0   0           -0.00246 
      1    Sn1_4d_xz     Te2_5p_x      2.88049       0   0   0           -0.00329 
      1    Sn1_4d_xz    Te2_4d_xy      2.88049       0   0   0           -0.00001 
      1    Sn1_4d_xz    Te2_4d_yz      2.88049       0   0   0           -0.00001 
      1    Sn1_4d_xz   Te2_4d_z^2      2.88049       0   0   0            0.00000 
      1    Sn1_4d_xz    Te2_4d_xz      2.88049       0   0   0           -0.00001 
      1    Sn1_4d_xz Te2_4d_x^2-y^2      2.88049       0   0   0           -0.00000 
      1 Sn1_4d_x^2-y^2       Te2_5s      2.88049       0   0   0           -0.00024 
      1 Sn1_4d_x^2-y^2     Te2_5p_y      2.88049       0   0   0           -0.00042 
      1 Sn1_4d_x^2-y^2     Te2_5p_z      2.88049       0   0   0           -0.00081 
      1 Sn1_4d_x^2-y^2     Te2_5p_x      2.88049       0   0   0           -0.00007 
      1 Sn1_4d_x^2-y^2    Te2_4d_xy      2.88049       0   0   0            0.00000 
      1 Sn1_4d_x^2-y^2    Te2_4d_yz      2.88049       0   0   0           -0.00000 
      1 Sn1_4d_x^2-y^2   Te2_4d_z^2      2.88049       0   0   0           -0.00000 
      1 Sn1_4d_x^2-y^2    Te2_4d_xz      2.88049       0   0   0           -0.00000 
      1 Sn1_4d_x^2-y^2 Te2_4d_x^2-y^2      2.88049       0   0   0            0.00000 
