
     Program PWSCF v.6.4.1 starts on 16Oct2023 at  8: 1:23 

     This program is part of the open-source Quantum ESPRESSO suite
     for quantum simulation of materials; please cite
         "P. Giannozzi et al., J. Phys.:Condens. Matter 21 395502 (2009);
         "P. Giannozzi et al., J. Phys.:Condens. Matter 29 465901 (2017);
          URL http://www.quantum-espresso.org", 
     in publications or presentations arising from this work. More details at
     http://www.quantum-espresso.org/quote

     Parallel version (MPI & OpenMP), running on       4 processor cores
     Number of MPI processes:                 4
     Threads/MPI process:                     1

     MPI processes distributed on     1 nodes
     R & G space division:  proc/nbgrp/npool/nimage =       4
     Waiting for input...
     Reading input from standard input
Warning: card &IONS ignored
Warning: card / ignored
Warning: card &CELL ignored
Warning: card / ignored

     Current dimensions of program PWSCF are:
     Max number of different atomic species (ntypx) = 10
     Max number of k-points (npk) =  40000
     Max angular momentum in pseudopotentials (lmaxx) =  3
               file Sn.pz-dn-kjpaw_psl.0.2.UPF: wavefunction(s)  5P 4D renormalized
               file Te.pz-dn-kjpaw_psl.0.2.2.UPF: wavefunction(s)  5S 5P 4D renormalized

     Subspace diagonalization in iterative solution of the eigenvalue problem:
     a serial algorithm will be used

 
     Parallelization info
     --------------------
     sticks:   dense  smooth     PW     G-vecs:    dense   smooth      PW
     Min         403     201     63                40217    14205    2465
     Max         404     202     64                40224    14214    2474
     Sum        1615     805    253               160885    56831    9875
 

     Title: 
      PbTe_PZ                                                                   


     bravais-lattice index     =            0
     lattice parameter (alat)  =       7.8720  a.u.
     unit-cell volume          =    1190.9422 (a.u.)^3
     number of atoms/cell      =            2
     number of atomic types    =            2
     number of electrons       =        30.00
     number of Kohn-Sham states=           80
     kinetic-energy cutoff     =      50.0000  Ry
     charge density cutoff     =     400.0000  Ry
     convergence threshold     =      1.0E-08
     mixing beta               =       0.7000
     number of iterations used =            8  plain     mixing
     Exchange-correlation      = SLA PZ NOGX NOGC ( 1  1  0  0 0 0)

     celldm(1)=   7.872000  celldm(2)=   0.000000  celldm(3)=   0.000000
     celldm(4)=   0.000000  celldm(5)=   0.000000  celldm(6)=   0.000000

     crystal axes: (cart. coord. in units of alat)
               a(1) = (   0.969375   0.000000   0.000000 )  
               a(2) = (   0.484687   0.839503   0.000000 )  
               a(3) = (   0.000000   0.000000   3.000000 )  

     reciprocal axes: (cart. coord. in units 2 pi/alat)
               b(1) = (  1.031593 -0.595590  0.000000 )  
               b(2) = (  0.000000  1.191181  0.000000 )  
               b(3) = (  0.000000  0.000000  0.333333 )  


     PseudoPot. # 1 for Sn read from file:
     /home/raagya/pseudo/Sn.pz-dn-kjpaw_psl.0.2.UPF
     MD5 check sum: 4ae5dc40354335ee230663518864dfb4
     Pseudo is Projector augmented-wave + core cor, Zval = 14.0
     Generated using "atomic" code by A. Dal Corso v.5.0.2 svn rev. 9415
     Shape of augmentation charge: BESSEL
     Using radial grid of 1243 points,  6 beta functions with: 
                l(1) =   0
                l(2) =   0
                l(3) =   1
                l(4) =   1
                l(5) =   2
                l(6) =   2
     Q(r) pseudized with 0 coefficients 


     PseudoPot. # 2 for Te read from file:
     /home/raagya/pseudo/Te.pz-dn-kjpaw_psl.0.2.2.UPF
     MD5 check sum: 848335cf92ad1717ddde3348b6640de7
     Pseudo is Projector augmented-wave + core cor, Zval = 16.0
     Generated using "atomic" code by A. Dal Corso v.5.0.2 svn rev. 9415
     Shape of augmentation charge: PSQ
     Using radial grid of 1245 points,  6 beta functions with: 
                l(1) =   0
                l(2) =   0
                l(3) =   1
                l(4) =   1
                l(5) =   2
                l(6) =   2
     Q(r) pseudized with 0 coefficients 


     atomic species   valence    mass     pseudopotential
        Sn            14.00   118.71000     Sn( 1.00)
        Te            16.00   127.60000     Te( 1.00)

     No symmetry found


                                    s                        frac. trans.

      isym =  1     identity                                     

 cryst.   s( 1) = (     1          0          0      )
                  (     0          1          0      )
                  (     0          0          1      )

 cart.    s( 1) = (  1.0000000  0.0000000  0.0000000 )
                  (  0.0000000  1.0000000  0.0000000 )
                  (  0.0000000  0.0000000  1.0000000 )


   Cartesian axes

     site n.     atom                  positions (alat units)
         1           Sn  tau(   1) = (   0.0000000   0.0000000   0.2056922  )
         2           Te  tau(   2) = (   0.4846875   0.2798344  -0.2004077  )

   Crystallographic axes

     site n.     atom                  positions (cryst. coord.)
         1           Sn  tau(   1) = (  0.0000000  0.0000000  0.0685641  )
         2           Te  tau(   2) = (  0.3333333  0.3333333 -0.0668026  )

     number of k points=  1600  Fermi-Dirac smearing, width (Ry)=  0.0030
                       cart. coord. in units 2pi/alat
        k(    1) = (   0.0000000   0.0000000   0.0000000), wk =   0.0012500
        k(    2) = (   0.0000000   0.0297795   0.0000000), wk =   0.0012500
        k(    3) = (   0.0000000   0.0595590   0.0000000), wk =   0.0012500
        k(    4) = (   0.0000000   0.0893385   0.0000000), wk =   0.0012500
        k(    5) = (   0.0000000   0.1191181   0.0000000), wk =   0.0012500
        k(    6) = (   0.0000000   0.1488976   0.0000000), wk =   0.0012500
        k(    7) = (   0.0000000   0.1786771   0.0000000), wk =   0.0012500
        k(    8) = (   0.0000000   0.2084566   0.0000000), wk =   0.0012500
        k(    9) = (   0.0000000   0.2382361   0.0000000), wk =   0.0012500
        k(   10) = (   0.0000000   0.2680156   0.0000000), wk =   0.0012500
        k(   11) = (   0.0000000   0.2977951   0.0000000), wk =   0.0012500
        k(   12) = (   0.0000000   0.3275746   0.0000000), wk =   0.0012500
        k(   13) = (   0.0000000   0.3573542   0.0000000), wk =   0.0012500
        k(   14) = (   0.0000000   0.3871337   0.0000000), wk =   0.0012500
        k(   15) = (   0.0000000   0.4169132   0.0000000), wk =   0.0012500
        k(   16) = (   0.0000000   0.4466927   0.0000000), wk =   0.0012500
        k(   17) = (   0.0000000   0.4764722   0.0000000), wk =   0.0012500
        k(   18) = (   0.0000000   0.5062517   0.0000000), wk =   0.0012500
        k(   19) = (   0.0000000   0.5360312   0.0000000), wk =   0.0012500
        k(   20) = (   0.0000000   0.5658108   0.0000000), wk =   0.0012500
        k(   21) = (   0.0000000  -0.5955903   0.0000000), wk =   0.0012500
        k(   22) = (   0.0000000  -0.5658108   0.0000000), wk =   0.0012500
        k(   23) = (   0.0000000  -0.5360312   0.0000000), wk =   0.0012500
        k(   24) = (   0.0000000  -0.5062517   0.0000000), wk =   0.0012500
        k(   25) = (   0.0000000  -0.4764722   0.0000000), wk =   0.0012500
        k(   26) = (   0.0000000  -0.4466927   0.0000000), wk =   0.0012500
        k(   27) = (   0.0000000  -0.4169132   0.0000000), wk =   0.0012500
        k(   28) = (   0.0000000  -0.3871337   0.0000000), wk =   0.0012500
        k(   29) = (   0.0000000  -0.3573542   0.0000000), wk =   0.0012500
        k(   30) = (   0.0000000  -0.3275746   0.0000000), wk =   0.0012500
        k(   31) = (   0.0000000  -0.2977951   0.0000000), wk =   0.0012500
        k(   32) = (   0.0000000  -0.2680156   0.0000000), wk =   0.0012500
        k(   33) = (   0.0000000  -0.2382361   0.0000000), wk =   0.0012500
        k(   34) = (   0.0000000  -0.2084566   0.0000000), wk =   0.0012500
        k(   35) = (   0.0000000  -0.1786771   0.0000000), wk =   0.0012500
        k(   36) = (   0.0000000  -0.1488976   0.0000000), wk =   0.0012500
        k(   37) = (   0.0000000  -0.1191181   0.0000000), wk =   0.0012500
        k(   38) = (   0.0000000  -0.0893385   0.0000000), wk =   0.0012500
        k(   39) = (   0.0000000  -0.0595590   0.0000000), wk =   0.0012500
        k(   40) = (   0.0000000  -0.0297795   0.0000000), wk =   0.0012500
        k(   41) = (   0.0257898  -0.0148898   0.0000000), wk =   0.0012500
        k(   42) = (   0.0257898   0.0148898   0.0000000), wk =   0.0012500
        k(   43) = (   0.0257898   0.0446693   0.0000000), wk =   0.0012500
        k(   44) = (   0.0257898   0.0744488   0.0000000), wk =   0.0012500
        k(   45) = (   0.0257898   0.1042283   0.0000000), wk =   0.0012500
        k(   46) = (   0.0257898   0.1340078   0.0000000), wk =   0.0012500
        k(   47) = (   0.0257898   0.1637873   0.0000000), wk =   0.0012500
        k(   48) = (   0.0257898   0.1935668   0.0000000), wk =   0.0012500
        k(   49) = (   0.0257898   0.2233464   0.0000000), wk =   0.0012500
        k(   50) = (   0.0257898   0.2531259   0.0000000), wk =   0.0012500
        k(   51) = (   0.0257898   0.2829054   0.0000000), wk =   0.0012500
        k(   52) = (   0.0257898   0.3126849   0.0000000), wk =   0.0012500
        k(   53) = (   0.0257898   0.3424644   0.0000000), wk =   0.0012500
        k(   54) = (   0.0257898   0.3722439   0.0000000), wk =   0.0012500
        k(   55) = (   0.0257898   0.4020234   0.0000000), wk =   0.0012500
        k(   56) = (   0.0257898   0.4318029   0.0000000), wk =   0.0012500
        k(   57) = (   0.0257898   0.4615825   0.0000000), wk =   0.0012500
        k(   58) = (   0.0257898   0.4913620   0.0000000), wk =   0.0012500
        k(   59) = (   0.0257898   0.5211415   0.0000000), wk =   0.0012500
        k(   60) = (   0.0257898   0.5509210   0.0000000), wk =   0.0012500
        k(   61) = (   0.0257898  -0.6104800   0.0000000), wk =   0.0012500
        k(   62) = (   0.0257898  -0.5807005   0.0000000), wk =   0.0012500
        k(   63) = (   0.0257898  -0.5509210   0.0000000), wk =   0.0012500
        k(   64) = (   0.0257898  -0.5211415   0.0000000), wk =   0.0012500
        k(   65) = (   0.0257898  -0.4913620   0.0000000), wk =   0.0012500
        k(   66) = (   0.0257898  -0.4615825   0.0000000), wk =   0.0012500
        k(   67) = (   0.0257898  -0.4318029   0.0000000), wk =   0.0012500
        k(   68) = (   0.0257898  -0.4020234   0.0000000), wk =   0.0012500
        k(   69) = (   0.0257898  -0.3722439   0.0000000), wk =   0.0012500
        k(   70) = (   0.0257898  -0.3424644   0.0000000), wk =   0.0012500
        k(   71) = (   0.0257898  -0.3126849   0.0000000), wk =   0.0012500
        k(   72) = (   0.0257898  -0.2829054   0.0000000), wk =   0.0012500
        k(   73) = (   0.0257898  -0.2531259   0.0000000), wk =   0.0012500
        k(   74) = (   0.0257898  -0.2233464   0.0000000), wk =   0.0012500
        k(   75) = (   0.0257898  -0.1935668   0.0000000), wk =   0.0012500
        k(   76) = (   0.0257898  -0.1637873   0.0000000), wk =   0.0012500
        k(   77) = (   0.0257898  -0.1340078   0.0000000), wk =   0.0012500
        k(   78) = (   0.0257898  -0.1042283   0.0000000), wk =   0.0012500
        k(   79) = (   0.0257898  -0.0744488   0.0000000), wk =   0.0012500
        k(   80) = (   0.0257898  -0.0446693   0.0000000), wk =   0.0012500
        k(   81) = (   0.0515796  -0.0297795   0.0000000), wk =   0.0012500
        k(   82) = (   0.0515796   0.0000000   0.0000000), wk =   0.0012500
        k(   83) = (   0.0515796   0.0297795   0.0000000), wk =   0.0012500
        k(   84) = (   0.0515796   0.0595590   0.0000000), wk =   0.0012500
        k(   85) = (   0.0515796   0.0893385   0.0000000), wk =   0.0012500
        k(   86) = (   0.0515796   0.1191181   0.0000000), wk =   0.0012500
        k(   87) = (   0.0515796   0.1488976   0.0000000), wk =   0.0012500
        k(   88) = (   0.0515796   0.1786771   0.0000000), wk =   0.0012500
        k(   89) = (   0.0515796   0.2084566   0.0000000), wk =   0.0012500
        k(   90) = (   0.0515796   0.2382361   0.0000000), wk =   0.0012500
        k(   91) = (   0.0515796   0.2680156   0.0000000), wk =   0.0012500
        k(   92) = (   0.0515796   0.2977951   0.0000000), wk =   0.0012500
        k(   93) = (   0.0515796   0.3275746   0.0000000), wk =   0.0012500
        k(   94) = (   0.0515796   0.3573542   0.0000000), wk =   0.0012500
        k(   95) = (   0.0515796   0.3871337   0.0000000), wk =   0.0012500
        k(   96) = (   0.0515796   0.4169132   0.0000000), wk =   0.0012500
        k(   97) = (   0.0515796   0.4466927   0.0000000), wk =   0.0012500
        k(   98) = (   0.0515796   0.4764722   0.0000000), wk =   0.0012500
        k(   99) = (   0.0515796   0.5062517   0.0000000), wk =   0.0012500
        k(  100) = (   0.0515796   0.5360312   0.0000000), wk =   0.0012500
        k(  101) = (   0.0515796  -0.6253698   0.0000000), wk =   0.0012500
        k(  102) = (   0.0515796  -0.5955903   0.0000000), wk =   0.0012500
        k(  103) = (   0.0515796  -0.5658108   0.0000000), wk =   0.0012500
        k(  104) = (   0.0515796  -0.5360312   0.0000000), wk =   0.0012500
        k(  105) = (   0.0515796  -0.5062517   0.0000000), wk =   0.0012500
        k(  106) = (   0.0515796  -0.4764722   0.0000000), wk =   0.0012500
        k(  107) = (   0.0515796  -0.4466927   0.0000000), wk =   0.0012500
        k(  108) = (   0.0515796  -0.4169132   0.0000000), wk =   0.0012500
        k(  109) = (   0.0515796  -0.3871337   0.0000000), wk =   0.0012500
        k(  110) = (   0.0515796  -0.3573542   0.0000000), wk =   0.0012500
        k(  111) = (   0.0515796  -0.3275746   0.0000000), wk =   0.0012500
        k(  112) = (   0.0515796  -0.2977951   0.0000000), wk =   0.0012500
        k(  113) = (   0.0515796  -0.2680156   0.0000000), wk =   0.0012500
        k(  114) = (   0.0515796  -0.2382361   0.0000000), wk =   0.0012500
        k(  115) = (   0.0515796  -0.2084566   0.0000000), wk =   0.0012500
        k(  116) = (   0.0515796  -0.1786771   0.0000000), wk =   0.0012500
        k(  117) = (   0.0515796  -0.1488976   0.0000000), wk =   0.0012500
        k(  118) = (   0.0515796  -0.1191181   0.0000000), wk =   0.0012500
        k(  119) = (   0.0515796  -0.0893385   0.0000000), wk =   0.0012500
        k(  120) = (   0.0515796  -0.0595590   0.0000000), wk =   0.0012500
        k(  121) = (   0.0773694  -0.0446693   0.0000000), wk =   0.0012500
        k(  122) = (   0.0773694  -0.0148898   0.0000000), wk =   0.0012500
        k(  123) = (   0.0773694   0.0148898   0.0000000), wk =   0.0012500
        k(  124) = (   0.0773694   0.0446693   0.0000000), wk =   0.0012500
        k(  125) = (   0.0773694   0.0744488   0.0000000), wk =   0.0012500
        k(  126) = (   0.0773694   0.1042283   0.0000000), wk =   0.0012500
        k(  127) = (   0.0773694   0.1340078   0.0000000), wk =   0.0012500
        k(  128) = (   0.0773694   0.1637873   0.0000000), wk =   0.0012500
        k(  129) = (   0.0773694   0.1935668   0.0000000), wk =   0.0012500
        k(  130) = (   0.0773694   0.2233464   0.0000000), wk =   0.0012500
        k(  131) = (   0.0773694   0.2531259   0.0000000), wk =   0.0012500
        k(  132) = (   0.0773694   0.2829054   0.0000000), wk =   0.0012500
        k(  133) = (   0.0773694   0.3126849   0.0000000), wk =   0.0012500
        k(  134) = (   0.0773694   0.3424644   0.0000000), wk =   0.0012500
        k(  135) = (   0.0773694   0.3722439   0.0000000), wk =   0.0012500
        k(  136) = (   0.0773694   0.4020234   0.0000000), wk =   0.0012500
        k(  137) = (   0.0773694   0.4318029   0.0000000), wk =   0.0012500
        k(  138) = (   0.0773694   0.4615825   0.0000000), wk =   0.0012500
        k(  139) = (   0.0773694   0.4913620   0.0000000), wk =   0.0012500
        k(  140) = (   0.0773694   0.5211415   0.0000000), wk =   0.0012500
        k(  141) = (   0.0773694  -0.6402595   0.0000000), wk =   0.0012500
        k(  142) = (   0.0773694  -0.6104800   0.0000000), wk =   0.0012500
        k(  143) = (   0.0773694  -0.5807005   0.0000000), wk =   0.0012500
        k(  144) = (   0.0773694  -0.5509210   0.0000000), wk =   0.0012500
        k(  145) = (   0.0773694  -0.5211415   0.0000000), wk =   0.0012500
        k(  146) = (   0.0773694  -0.4913620   0.0000000), wk =   0.0012500
        k(  147) = (   0.0773694  -0.4615825   0.0000000), wk =   0.0012500
        k(  148) = (   0.0773694  -0.4318029   0.0000000), wk =   0.0012500
        k(  149) = (   0.0773694  -0.4020234   0.0000000), wk =   0.0012500
        k(  150) = (   0.0773694  -0.3722439   0.0000000), wk =   0.0012500
        k(  151) = (   0.0773694  -0.3424644   0.0000000), wk =   0.0012500
        k(  152) = (   0.0773694  -0.3126849   0.0000000), wk =   0.0012500
        k(  153) = (   0.0773694  -0.2829054   0.0000000), wk =   0.0012500
        k(  154) = (   0.0773694  -0.2531259   0.0000000), wk =   0.0012500
        k(  155) = (   0.0773694  -0.2233464   0.0000000), wk =   0.0012500
        k(  156) = (   0.0773694  -0.1935668   0.0000000), wk =   0.0012500
        k(  157) = (   0.0773694  -0.1637873   0.0000000), wk =   0.0012500
        k(  158) = (   0.0773694  -0.1340078   0.0000000), wk =   0.0012500
        k(  159) = (   0.0773694  -0.1042283   0.0000000), wk =   0.0012500
        k(  160) = (   0.0773694  -0.0744488   0.0000000), wk =   0.0012500
        k(  161) = (   0.1031593  -0.0595590   0.0000000), wk =   0.0012500
        k(  162) = (   0.1031593  -0.0297795   0.0000000), wk =   0.0012500
        k(  163) = (   0.1031593   0.0000000   0.0000000), wk =   0.0012500
        k(  164) = (   0.1031593   0.0297795   0.0000000), wk =   0.0012500
        k(  165) = (   0.1031593   0.0595590   0.0000000), wk =   0.0012500
        k(  166) = (   0.1031593   0.0893385   0.0000000), wk =   0.0012500
        k(  167) = (   0.1031593   0.1191181   0.0000000), wk =   0.0012500
        k(  168) = (   0.1031593   0.1488976   0.0000000), wk =   0.0012500
        k(  169) = (   0.1031593   0.1786771   0.0000000), wk =   0.0012500
        k(  170) = (   0.1031593   0.2084566   0.0000000), wk =   0.0012500
        k(  171) = (   0.1031593   0.2382361   0.0000000), wk =   0.0012500
        k(  172) = (   0.1031593   0.2680156   0.0000000), wk =   0.0012500
        k(  173) = (   0.1031593   0.2977951   0.0000000), wk =   0.0012500
        k(  174) = (   0.1031593   0.3275746   0.0000000), wk =   0.0012500
        k(  175) = (   0.1031593   0.3573542   0.0000000), wk =   0.0012500
        k(  176) = (   0.1031593   0.3871337   0.0000000), wk =   0.0012500
        k(  177) = (   0.1031593   0.4169132   0.0000000), wk =   0.0012500
        k(  178) = (   0.1031593   0.4466927   0.0000000), wk =   0.0012500
        k(  179) = (   0.1031593   0.4764722   0.0000000), wk =   0.0012500
        k(  180) = (   0.1031593   0.5062517   0.0000000), wk =   0.0012500
        k(  181) = (   0.1031593  -0.6551493   0.0000000), wk =   0.0012500
        k(  182) = (   0.1031593  -0.6253698   0.0000000), wk =   0.0012500
        k(  183) = (   0.1031593  -0.5955903   0.0000000), wk =   0.0012500
        k(  184) = (   0.1031593  -0.5658108   0.0000000), wk =   0.0012500
        k(  185) = (   0.1031593  -0.5360312   0.0000000), wk =   0.0012500
        k(  186) = (   0.1031593  -0.5062517   0.0000000), wk =   0.0012500
        k(  187) = (   0.1031593  -0.4764722   0.0000000), wk =   0.0012500
        k(  188) = (   0.1031593  -0.4466927   0.0000000), wk =   0.0012500
        k(  189) = (   0.1031593  -0.4169132   0.0000000), wk =   0.0012500
        k(  190) = (   0.1031593  -0.3871337   0.0000000), wk =   0.0012500
        k(  191) = (   0.1031593  -0.3573542   0.0000000), wk =   0.0012500
        k(  192) = (   0.1031593  -0.3275746   0.0000000), wk =   0.0012500
        k(  193) = (   0.1031593  -0.2977951   0.0000000), wk =   0.0012500
        k(  194) = (   0.1031593  -0.2680156   0.0000000), wk =   0.0012500
        k(  195) = (   0.1031593  -0.2382361   0.0000000), wk =   0.0012500
        k(  196) = (   0.1031593  -0.2084566   0.0000000), wk =   0.0012500
        k(  197) = (   0.1031593  -0.1786771   0.0000000), wk =   0.0012500
        k(  198) = (   0.1031593  -0.1488976   0.0000000), wk =   0.0012500
        k(  199) = (   0.1031593  -0.1191181   0.0000000), wk =   0.0012500
        k(  200) = (   0.1031593  -0.0893385   0.0000000), wk =   0.0012500
        k(  201) = (   0.1289491  -0.0744488   0.0000000), wk =   0.0012500
        k(  202) = (   0.1289491  -0.0446693   0.0000000), wk =   0.0012500
        k(  203) = (   0.1289491  -0.0148898   0.0000000), wk =   0.0012500
        k(  204) = (   0.1289491   0.0148898   0.0000000), wk =   0.0012500
        k(  205) = (   0.1289491   0.0446693   0.0000000), wk =   0.0012500
        k(  206) = (   0.1289491   0.0744488   0.0000000), wk =   0.0012500
        k(  207) = (   0.1289491   0.1042283   0.0000000), wk =   0.0012500
        k(  208) = (   0.1289491   0.1340078   0.0000000), wk =   0.0012500
        k(  209) = (   0.1289491   0.1637873   0.0000000), wk =   0.0012500
        k(  210) = (   0.1289491   0.1935668   0.0000000), wk =   0.0012500
        k(  211) = (   0.1289491   0.2233464   0.0000000), wk =   0.0012500
        k(  212) = (   0.1289491   0.2531259   0.0000000), wk =   0.0012500
        k(  213) = (   0.1289491   0.2829054   0.0000000), wk =   0.0012500
        k(  214) = (   0.1289491   0.3126849   0.0000000), wk =   0.0012500
        k(  215) = (   0.1289491   0.3424644   0.0000000), wk =   0.0012500
        k(  216) = (   0.1289491   0.3722439   0.0000000), wk =   0.0012500
        k(  217) = (   0.1289491   0.4020234   0.0000000), wk =   0.0012500
        k(  218) = (   0.1289491   0.4318029   0.0000000), wk =   0.0012500
        k(  219) = (   0.1289491   0.4615825   0.0000000), wk =   0.0012500
        k(  220) = (   0.1289491   0.4913620   0.0000000), wk =   0.0012500
        k(  221) = (   0.1289491  -0.6700391   0.0000000), wk =   0.0012500
        k(  222) = (   0.1289491  -0.6402595   0.0000000), wk =   0.0012500
        k(  223) = (   0.1289491  -0.6104800   0.0000000), wk =   0.0012500
        k(  224) = (   0.1289491  -0.5807005   0.0000000), wk =   0.0012500
        k(  225) = (   0.1289491  -0.5509210   0.0000000), wk =   0.0012500
        k(  226) = (   0.1289491  -0.5211415   0.0000000), wk =   0.0012500
        k(  227) = (   0.1289491  -0.4913620   0.0000000), wk =   0.0012500
        k(  228) = (   0.1289491  -0.4615825   0.0000000), wk =   0.0012500
        k(  229) = (   0.1289491  -0.4318029   0.0000000), wk =   0.0012500
        k(  230) = (   0.1289491  -0.4020234   0.0000000), wk =   0.0012500
        k(  231) = (   0.1289491  -0.3722439   0.0000000), wk =   0.0012500
        k(  232) = (   0.1289491  -0.3424644   0.0000000), wk =   0.0012500
        k(  233) = (   0.1289491  -0.3126849   0.0000000), wk =   0.0012500
        k(  234) = (   0.1289491  -0.2829054   0.0000000), wk =   0.0012500
        k(  235) = (   0.1289491  -0.2531259   0.0000000), wk =   0.0012500
        k(  236) = (   0.1289491  -0.2233464   0.0000000), wk =   0.0012500
        k(  237) = (   0.1289491  -0.1935668   0.0000000), wk =   0.0012500
        k(  238) = (   0.1289491  -0.1637873   0.0000000), wk =   0.0012500
        k(  239) = (   0.1289491  -0.1340078   0.0000000), wk =   0.0012500
        k(  240) = (   0.1289491  -0.1042283   0.0000000), wk =   0.0012500
        k(  241) = (   0.1547389  -0.0893385   0.0000000), wk =   0.0012500
        k(  242) = (   0.1547389  -0.0595590   0.0000000), wk =   0.0012500
        k(  243) = (   0.1547389  -0.0297795   0.0000000), wk =   0.0012500
        k(  244) = (   0.1547389   0.0000000   0.0000000), wk =   0.0012500
        k(  245) = (   0.1547389   0.0297795   0.0000000), wk =   0.0012500
        k(  246) = (   0.1547389   0.0595590   0.0000000), wk =   0.0012500
        k(  247) = (   0.1547389   0.0893385   0.0000000), wk =   0.0012500
        k(  248) = (   0.1547389   0.1191181   0.0000000), wk =   0.0012500
        k(  249) = (   0.1547389   0.1488976   0.0000000), wk =   0.0012500
        k(  250) = (   0.1547389   0.1786771   0.0000000), wk =   0.0012500
        k(  251) = (   0.1547389   0.2084566   0.0000000), wk =   0.0012500
        k(  252) = (   0.1547389   0.2382361   0.0000000), wk =   0.0012500
        k(  253) = (   0.1547389   0.2680156   0.0000000), wk =   0.0012500
        k(  254) = (   0.1547389   0.2977951   0.0000000), wk =   0.0012500
        k(  255) = (   0.1547389   0.3275746   0.0000000), wk =   0.0012500
        k(  256) = (   0.1547389   0.3573542   0.0000000), wk =   0.0012500
        k(  257) = (   0.1547389   0.3871337   0.0000000), wk =   0.0012500
        k(  258) = (   0.1547389   0.4169132   0.0000000), wk =   0.0012500
        k(  259) = (   0.1547389   0.4466927   0.0000000), wk =   0.0012500
        k(  260) = (   0.1547389   0.4764722   0.0000000), wk =   0.0012500
        k(  261) = (   0.1547389  -0.6849288   0.0000000), wk =   0.0012500
        k(  262) = (   0.1547389  -0.6551493   0.0000000), wk =   0.0012500
        k(  263) = (   0.1547389  -0.6253698   0.0000000), wk =   0.0012500
        k(  264) = (   0.1547389  -0.5955903   0.0000000), wk =   0.0012500
        k(  265) = (   0.1547389  -0.5658108   0.0000000), wk =   0.0012500
        k(  266) = (   0.1547389  -0.5360312   0.0000000), wk =   0.0012500
        k(  267) = (   0.1547389  -0.5062517   0.0000000), wk =   0.0012500
        k(  268) = (   0.1547389  -0.4764722   0.0000000), wk =   0.0012500
        k(  269) = (   0.1547389  -0.4466927   0.0000000), wk =   0.0012500
        k(  270) = (   0.1547389  -0.4169132   0.0000000), wk =   0.0012500
        k(  271) = (   0.1547389  -0.3871337   0.0000000), wk =   0.0012500
        k(  272) = (   0.1547389  -0.3573542   0.0000000), wk =   0.0012500
        k(  273) = (   0.1547389  -0.3275746   0.0000000), wk =   0.0012500
        k(  274) = (   0.1547389  -0.2977951   0.0000000), wk =   0.0012500
        k(  275) = (   0.1547389  -0.2680156   0.0000000), wk =   0.0012500
        k(  276) = (   0.1547389  -0.2382361   0.0000000), wk =   0.0012500
        k(  277) = (   0.1547389  -0.2084566   0.0000000), wk =   0.0012500
        k(  278) = (   0.1547389  -0.1786771   0.0000000), wk =   0.0012500
        k(  279) = (   0.1547389  -0.1488976   0.0000000), wk =   0.0012500
        k(  280) = (   0.1547389  -0.1191181   0.0000000), wk =   0.0012500
        k(  281) = (   0.1805287  -0.1042283   0.0000000), wk =   0.0012500
        k(  282) = (   0.1805287  -0.0744488   0.0000000), wk =   0.0012500
        k(  283) = (   0.1805287  -0.0446693   0.0000000), wk =   0.0012500
        k(  284) = (   0.1805287  -0.0148898   0.0000000), wk =   0.0012500
        k(  285) = (   0.1805287   0.0148898   0.0000000), wk =   0.0012500
        k(  286) = (   0.1805287   0.0446693   0.0000000), wk =   0.0012500
        k(  287) = (   0.1805287   0.0744488   0.0000000), wk =   0.0012500
        k(  288) = (   0.1805287   0.1042283   0.0000000), wk =   0.0012500
        k(  289) = (   0.1805287   0.1340078   0.0000000), wk =   0.0012500
        k(  290) = (   0.1805287   0.1637873   0.0000000), wk =   0.0012500
        k(  291) = (   0.1805287   0.1935668   0.0000000), wk =   0.0012500
        k(  292) = (   0.1805287   0.2233464   0.0000000), wk =   0.0012500
        k(  293) = (   0.1805287   0.2531259   0.0000000), wk =   0.0012500
        k(  294) = (   0.1805287   0.2829054   0.0000000), wk =   0.0012500
        k(  295) = (   0.1805287   0.3126849   0.0000000), wk =   0.0012500
        k(  296) = (   0.1805287   0.3424644   0.0000000), wk =   0.0012500
        k(  297) = (   0.1805287   0.3722439   0.0000000), wk =   0.0012500
        k(  298) = (   0.1805287   0.4020234   0.0000000), wk =   0.0012500
        k(  299) = (   0.1805287   0.4318029   0.0000000), wk =   0.0012500
        k(  300) = (   0.1805287   0.4615825   0.0000000), wk =   0.0012500
        k(  301) = (   0.1805287  -0.6998186   0.0000000), wk =   0.0012500
        k(  302) = (   0.1805287  -0.6700391   0.0000000), wk =   0.0012500
        k(  303) = (   0.1805287  -0.6402595   0.0000000), wk =   0.0012500
        k(  304) = (   0.1805287  -0.6104800   0.0000000), wk =   0.0012500
        k(  305) = (   0.1805287  -0.5807005   0.0000000), wk =   0.0012500
        k(  306) = (   0.1805287  -0.5509210   0.0000000), wk =   0.0012500
        k(  307) = (   0.1805287  -0.5211415   0.0000000), wk =   0.0012500
        k(  308) = (   0.1805287  -0.4913620   0.0000000), wk =   0.0012500
        k(  309) = (   0.1805287  -0.4615825   0.0000000), wk =   0.0012500
        k(  310) = (   0.1805287  -0.4318029   0.0000000), wk =   0.0012500
        k(  311) = (   0.1805287  -0.4020234   0.0000000), wk =   0.0012500
        k(  312) = (   0.1805287  -0.3722439   0.0000000), wk =   0.0012500
        k(  313) = (   0.1805287  -0.3424644   0.0000000), wk =   0.0012500
        k(  314) = (   0.1805287  -0.3126849   0.0000000), wk =   0.0012500
        k(  315) = (   0.1805287  -0.2829054   0.0000000), wk =   0.0012500
        k(  316) = (   0.1805287  -0.2531259   0.0000000), wk =   0.0012500
        k(  317) = (   0.1805287  -0.2233464   0.0000000), wk =   0.0012500
        k(  318) = (   0.1805287  -0.1935668   0.0000000), wk =   0.0012500
        k(  319) = (   0.1805287  -0.1637873   0.0000000), wk =   0.0012500
        k(  320) = (   0.1805287  -0.1340078   0.0000000), wk =   0.0012500
        k(  321) = (   0.2063185  -0.1191181   0.0000000), wk =   0.0012500
        k(  322) = (   0.2063185  -0.0893385   0.0000000), wk =   0.0012500
        k(  323) = (   0.2063185  -0.0595590   0.0000000), wk =   0.0012500
        k(  324) = (   0.2063185  -0.0297795   0.0000000), wk =   0.0012500
        k(  325) = (   0.2063185   0.0000000   0.0000000), wk =   0.0012500
        k(  326) = (   0.2063185   0.0297795   0.0000000), wk =   0.0012500
        k(  327) = (   0.2063185   0.0595590   0.0000000), wk =   0.0012500
        k(  328) = (   0.2063185   0.0893385   0.0000000), wk =   0.0012500
        k(  329) = (   0.2063185   0.1191181   0.0000000), wk =   0.0012500
        k(  330) = (   0.2063185   0.1488976   0.0000000), wk =   0.0012500
        k(  331) = (   0.2063185   0.1786771   0.0000000), wk =   0.0012500
        k(  332) = (   0.2063185   0.2084566   0.0000000), wk =   0.0012500
        k(  333) = (   0.2063185   0.2382361   0.0000000), wk =   0.0012500
        k(  334) = (   0.2063185   0.2680156   0.0000000), wk =   0.0012500
        k(  335) = (   0.2063185   0.2977951   0.0000000), wk =   0.0012500
        k(  336) = (   0.2063185   0.3275746   0.0000000), wk =   0.0012500
        k(  337) = (   0.2063185   0.3573542   0.0000000), wk =   0.0012500
        k(  338) = (   0.2063185   0.3871337   0.0000000), wk =   0.0012500
        k(  339) = (   0.2063185   0.4169132   0.0000000), wk =   0.0012500
        k(  340) = (   0.2063185   0.4466927   0.0000000), wk =   0.0012500
        k(  341) = (   0.2063185  -0.7147083   0.0000000), wk =   0.0012500
        k(  342) = (   0.2063185  -0.6849288   0.0000000), wk =   0.0012500
        k(  343) = (   0.2063185  -0.6551493   0.0000000), wk =   0.0012500
        k(  344) = (   0.2063185  -0.6253698   0.0000000), wk =   0.0012500
        k(  345) = (   0.2063185  -0.5955903   0.0000000), wk =   0.0012500
        k(  346) = (   0.2063185  -0.5658108   0.0000000), wk =   0.0012500
        k(  347) = (   0.2063185  -0.5360312   0.0000000), wk =   0.0012500
        k(  348) = (   0.2063185  -0.5062517   0.0000000), wk =   0.0012500
        k(  349) = (   0.2063185  -0.4764722   0.0000000), wk =   0.0012500
        k(  350) = (   0.2063185  -0.4466927   0.0000000), wk =   0.0012500
        k(  351) = (   0.2063185  -0.4169132   0.0000000), wk =   0.0012500
        k(  352) = (   0.2063185  -0.3871337   0.0000000), wk =   0.0012500
        k(  353) = (   0.2063185  -0.3573542   0.0000000), wk =   0.0012500
        k(  354) = (   0.2063185  -0.3275746   0.0000000), wk =   0.0012500
        k(  355) = (   0.2063185  -0.2977951   0.0000000), wk =   0.0012500
        k(  356) = (   0.2063185  -0.2680156   0.0000000), wk =   0.0012500
        k(  357) = (   0.2063185  -0.2382361   0.0000000), wk =   0.0012500
        k(  358) = (   0.2063185  -0.2084566   0.0000000), wk =   0.0012500
        k(  359) = (   0.2063185  -0.1786771   0.0000000), wk =   0.0012500
        k(  360) = (   0.2063185  -0.1488976   0.0000000), wk =   0.0012500
        k(  361) = (   0.2321083  -0.1340078   0.0000000), wk =   0.0012500
        k(  362) = (   0.2321083  -0.1042283   0.0000000), wk =   0.0012500
        k(  363) = (   0.2321083  -0.0744488   0.0000000), wk =   0.0012500
        k(  364) = (   0.2321083  -0.0446693   0.0000000), wk =   0.0012500
        k(  365) = (   0.2321083  -0.0148898   0.0000000), wk =   0.0012500
        k(  366) = (   0.2321083   0.0148898   0.0000000), wk =   0.0012500
        k(  367) = (   0.2321083   0.0446693   0.0000000), wk =   0.0012500
        k(  368) = (   0.2321083   0.0744488   0.0000000), wk =   0.0012500
        k(  369) = (   0.2321083   0.1042283   0.0000000), wk =   0.0012500
        k(  370) = (   0.2321083   0.1340078   0.0000000), wk =   0.0012500
        k(  371) = (   0.2321083   0.1637873   0.0000000), wk =   0.0012500
        k(  372) = (   0.2321083   0.1935668   0.0000000), wk =   0.0012500
        k(  373) = (   0.2321083   0.2233464   0.0000000), wk =   0.0012500
        k(  374) = (   0.2321083   0.2531259   0.0000000), wk =   0.0012500
        k(  375) = (   0.2321083   0.2829054   0.0000000), wk =   0.0012500
        k(  376) = (   0.2321083   0.3126849   0.0000000), wk =   0.0012500
        k(  377) = (   0.2321083   0.3424644   0.0000000), wk =   0.0012500
        k(  378) = (   0.2321083   0.3722439   0.0000000), wk =   0.0012500
        k(  379) = (   0.2321083   0.4020234   0.0000000), wk =   0.0012500
        k(  380) = (   0.2321083   0.4318029   0.0000000), wk =   0.0012500
        k(  381) = (   0.2321083  -0.7295981   0.0000000), wk =   0.0012500
        k(  382) = (   0.2321083  -0.6998186   0.0000000), wk =   0.0012500
        k(  383) = (   0.2321083  -0.6700391   0.0000000), wk =   0.0012500
        k(  384) = (   0.2321083  -0.6402595   0.0000000), wk =   0.0012500
        k(  385) = (   0.2321083  -0.6104800   0.0000000), wk =   0.0012500
        k(  386) = (   0.2321083  -0.5807005   0.0000000), wk =   0.0012500
        k(  387) = (   0.2321083  -0.5509210   0.0000000), wk =   0.0012500
        k(  388) = (   0.2321083  -0.5211415   0.0000000), wk =   0.0012500
        k(  389) = (   0.2321083  -0.4913620   0.0000000), wk =   0.0012500
        k(  390) = (   0.2321083  -0.4615825   0.0000000), wk =   0.0012500
        k(  391) = (   0.2321083  -0.4318029   0.0000000), wk =   0.0012500
        k(  392) = (   0.2321083  -0.4020234   0.0000000), wk =   0.0012500
        k(  393) = (   0.2321083  -0.3722439   0.0000000), wk =   0.0012500
        k(  394) = (   0.2321083  -0.3424644   0.0000000), wk =   0.0012500
        k(  395) = (   0.2321083  -0.3126849   0.0000000), wk =   0.0012500
        k(  396) = (   0.2321083  -0.2829054   0.0000000), wk =   0.0012500
        k(  397) = (   0.2321083  -0.2531259   0.0000000), wk =   0.0012500
        k(  398) = (   0.2321083  -0.2233464   0.0000000), wk =   0.0012500
        k(  399) = (   0.2321083  -0.1935668   0.0000000), wk =   0.0012500
        k(  400) = (   0.2321083  -0.1637873   0.0000000), wk =   0.0012500
        k(  401) = (   0.2578982  -0.1488976   0.0000000), wk =   0.0012500
        k(  402) = (   0.2578982  -0.1191181   0.0000000), wk =   0.0012500
        k(  403) = (   0.2578982  -0.0893385   0.0000000), wk =   0.0012500
        k(  404) = (   0.2578982  -0.0595590   0.0000000), wk =   0.0012500
        k(  405) = (   0.2578982  -0.0297795   0.0000000), wk =   0.0012500
        k(  406) = (   0.2578982   0.0000000   0.0000000), wk =   0.0012500
        k(  407) = (   0.2578982   0.0297795   0.0000000), wk =   0.0012500
        k(  408) = (   0.2578982   0.0595590   0.0000000), wk =   0.0012500
        k(  409) = (   0.2578982   0.0893385   0.0000000), wk =   0.0012500
        k(  410) = (   0.2578982   0.1191181   0.0000000), wk =   0.0012500
        k(  411) = (   0.2578982   0.1488976   0.0000000), wk =   0.0012500
        k(  412) = (   0.2578982   0.1786771   0.0000000), wk =   0.0012500
        k(  413) = (   0.2578982   0.2084566   0.0000000), wk =   0.0012500
        k(  414) = (   0.2578982   0.2382361   0.0000000), wk =   0.0012500
        k(  415) = (   0.2578982   0.2680156   0.0000000), wk =   0.0012500
        k(  416) = (   0.2578982   0.2977951   0.0000000), wk =   0.0012500
        k(  417) = (   0.2578982   0.3275746   0.0000000), wk =   0.0012500
        k(  418) = (   0.2578982   0.3573542   0.0000000), wk =   0.0012500
        k(  419) = (   0.2578982   0.3871337   0.0000000), wk =   0.0012500
        k(  420) = (   0.2578982   0.4169132   0.0000000), wk =   0.0012500
        k(  421) = (   0.2578982  -0.7444878   0.0000000), wk =   0.0012500
        k(  422) = (   0.2578982  -0.7147083   0.0000000), wk =   0.0012500
        k(  423) = (   0.2578982  -0.6849288   0.0000000), wk =   0.0012500
        k(  424) = (   0.2578982  -0.6551493   0.0000000), wk =   0.0012500
        k(  425) = (   0.2578982  -0.6253698   0.0000000), wk =   0.0012500
        k(  426) = (   0.2578982  -0.5955903   0.0000000), wk =   0.0012500
        k(  427) = (   0.2578982  -0.5658108   0.0000000), wk =   0.0012500
        k(  428) = (   0.2578982  -0.5360312   0.0000000), wk =   0.0012500
        k(  429) = (   0.2578982  -0.5062517   0.0000000), wk =   0.0012500
        k(  430) = (   0.2578982  -0.4764722   0.0000000), wk =   0.0012500
        k(  431) = (   0.2578982  -0.4466927   0.0000000), wk =   0.0012500
        k(  432) = (   0.2578982  -0.4169132   0.0000000), wk =   0.0012500
        k(  433) = (   0.2578982  -0.3871337   0.0000000), wk =   0.0012500
        k(  434) = (   0.2578982  -0.3573542   0.0000000), wk =   0.0012500
        k(  435) = (   0.2578982  -0.3275746   0.0000000), wk =   0.0012500
        k(  436) = (   0.2578982  -0.2977951   0.0000000), wk =   0.0012500
        k(  437) = (   0.2578982  -0.2680156   0.0000000), wk =   0.0012500
        k(  438) = (   0.2578982  -0.2382361   0.0000000), wk =   0.0012500
        k(  439) = (   0.2578982  -0.2084566   0.0000000), wk =   0.0012500
        k(  440) = (   0.2578982  -0.1786771   0.0000000), wk =   0.0012500
        k(  441) = (   0.2836880  -0.1637873   0.0000000), wk =   0.0012500
        k(  442) = (   0.2836880  -0.1340078   0.0000000), wk =   0.0012500
        k(  443) = (   0.2836880  -0.1042283   0.0000000), wk =   0.0012500
        k(  444) = (   0.2836880  -0.0744488   0.0000000), wk =   0.0012500
        k(  445) = (   0.2836880  -0.0446693   0.0000000), wk =   0.0012500
        k(  446) = (   0.2836880  -0.0148898   0.0000000), wk =   0.0012500
        k(  447) = (   0.2836880   0.0148898   0.0000000), wk =   0.0012500
        k(  448) = (   0.2836880   0.0446693   0.0000000), wk =   0.0012500
        k(  449) = (   0.2836880   0.0744488   0.0000000), wk =   0.0012500
        k(  450) = (   0.2836880   0.1042283   0.0000000), wk =   0.0012500
        k(  451) = (   0.2836880   0.1340078   0.0000000), wk =   0.0012500
        k(  452) = (   0.2836880   0.1637873   0.0000000), wk =   0.0012500
        k(  453) = (   0.2836880   0.1935668   0.0000000), wk =   0.0012500
        k(  454) = (   0.2836880   0.2233464   0.0000000), wk =   0.0012500
        k(  455) = (   0.2836880   0.2531259   0.0000000), wk =   0.0012500
        k(  456) = (   0.2836880   0.2829054   0.0000000), wk =   0.0012500
        k(  457) = (   0.2836880   0.3126849   0.0000000), wk =   0.0012500
        k(  458) = (   0.2836880   0.3424644   0.0000000), wk =   0.0012500
        k(  459) = (   0.2836880   0.3722439   0.0000000), wk =   0.0012500
        k(  460) = (   0.2836880   0.4020234   0.0000000), wk =   0.0012500
        k(  461) = (   0.2836880  -0.7593776   0.0000000), wk =   0.0012500
        k(  462) = (   0.2836880  -0.7295981   0.0000000), wk =   0.0012500
        k(  463) = (   0.2836880  -0.6998186   0.0000000), wk =   0.0012500
        k(  464) = (   0.2836880  -0.6700391   0.0000000), wk =   0.0012500
        k(  465) = (   0.2836880  -0.6402595   0.0000000), wk =   0.0012500
        k(  466) = (   0.2836880  -0.6104800   0.0000000), wk =   0.0012500
        k(  467) = (   0.2836880  -0.5807005   0.0000000), wk =   0.0012500
        k(  468) = (   0.2836880  -0.5509210   0.0000000), wk =   0.0012500
        k(  469) = (   0.2836880  -0.5211415   0.0000000), wk =   0.0012500
        k(  470) = (   0.2836880  -0.4913620   0.0000000), wk =   0.0012500
        k(  471) = (   0.2836880  -0.4615825   0.0000000), wk =   0.0012500
        k(  472) = (   0.2836880  -0.4318029   0.0000000), wk =   0.0012500
        k(  473) = (   0.2836880  -0.4020234   0.0000000), wk =   0.0012500
        k(  474) = (   0.2836880  -0.3722439   0.0000000), wk =   0.0012500
        k(  475) = (   0.2836880  -0.3424644   0.0000000), wk =   0.0012500
        k(  476) = (   0.2836880  -0.3126849   0.0000000), wk =   0.0012500
        k(  477) = (   0.2836880  -0.2829054   0.0000000), wk =   0.0012500
        k(  478) = (   0.2836880  -0.2531259   0.0000000), wk =   0.0012500
        k(  479) = (   0.2836880  -0.2233464   0.0000000), wk =   0.0012500
        k(  480) = (   0.2836880  -0.1935668   0.0000000), wk =   0.0012500
        k(  481) = (   0.3094778  -0.1786771   0.0000000), wk =   0.0012500
        k(  482) = (   0.3094778  -0.1488976   0.0000000), wk =   0.0012500
        k(  483) = (   0.3094778  -0.1191181   0.0000000), wk =   0.0012500
        k(  484) = (   0.3094778  -0.0893385   0.0000000), wk =   0.0012500
        k(  485) = (   0.3094778  -0.0595590   0.0000000), wk =   0.0012500
        k(  486) = (   0.3094778  -0.0297795   0.0000000), wk =   0.0012500
        k(  487) = (   0.3094778   0.0000000   0.0000000), wk =   0.0012500
        k(  488) = (   0.3094778   0.0297795   0.0000000), wk =   0.0012500
        k(  489) = (   0.3094778   0.0595590   0.0000000), wk =   0.0012500
        k(  490) = (   0.3094778   0.0893385   0.0000000), wk =   0.0012500
        k(  491) = (   0.3094778   0.1191181   0.0000000), wk =   0.0012500
        k(  492) = (   0.3094778   0.1488976   0.0000000), wk =   0.0012500
        k(  493) = (   0.3094778   0.1786771   0.0000000), wk =   0.0012500
        k(  494) = (   0.3094778   0.2084566   0.0000000), wk =   0.0012500
        k(  495) = (   0.3094778   0.2382361   0.0000000), wk =   0.0012500
        k(  496) = (   0.3094778   0.2680156   0.0000000), wk =   0.0012500
        k(  497) = (   0.3094778   0.2977951   0.0000000), wk =   0.0012500
        k(  498) = (   0.3094778   0.3275746   0.0000000), wk =   0.0012500
        k(  499) = (   0.3094778   0.3573542   0.0000000), wk =   0.0012500
        k(  500) = (   0.3094778   0.3871337   0.0000000), wk =   0.0012500
        k(  501) = (   0.3094778  -0.7742674   0.0000000), wk =   0.0012500
        k(  502) = (   0.3094778  -0.7444878   0.0000000), wk =   0.0012500
        k(  503) = (   0.3094778  -0.7147083   0.0000000), wk =   0.0012500
        k(  504) = (   0.3094778  -0.6849288   0.0000000), wk =   0.0012500
        k(  505) = (   0.3094778  -0.6551493   0.0000000), wk =   0.0012500
        k(  506) = (   0.3094778  -0.6253698   0.0000000), wk =   0.0012500
        k(  507) = (   0.3094778  -0.5955903   0.0000000), wk =   0.0012500
        k(  508) = (   0.3094778  -0.5658108   0.0000000), wk =   0.0012500
        k(  509) = (   0.3094778  -0.5360312   0.0000000), wk =   0.0012500
        k(  510) = (   0.3094778  -0.5062517   0.0000000), wk =   0.0012500
        k(  511) = (   0.3094778  -0.4764722   0.0000000), wk =   0.0012500
        k(  512) = (   0.3094778  -0.4466927   0.0000000), wk =   0.0012500
        k(  513) = (   0.3094778  -0.4169132   0.0000000), wk =   0.0012500
        k(  514) = (   0.3094778  -0.3871337   0.0000000), wk =   0.0012500
        k(  515) = (   0.3094778  -0.3573542   0.0000000), wk =   0.0012500
        k(  516) = (   0.3094778  -0.3275746   0.0000000), wk =   0.0012500
        k(  517) = (   0.3094778  -0.2977951   0.0000000), wk =   0.0012500
        k(  518) = (   0.3094778  -0.2680156   0.0000000), wk =   0.0012500
        k(  519) = (   0.3094778  -0.2382361   0.0000000), wk =   0.0012500
        k(  520) = (   0.3094778  -0.2084566   0.0000000), wk =   0.0012500
        k(  521) = (   0.3352676  -0.1935668   0.0000000), wk =   0.0012500
        k(  522) = (   0.3352676  -0.1637873   0.0000000), wk =   0.0012500
        k(  523) = (   0.3352676  -0.1340078   0.0000000), wk =   0.0012500
        k(  524) = (   0.3352676  -0.1042283   0.0000000), wk =   0.0012500
        k(  525) = (   0.3352676  -0.0744488   0.0000000), wk =   0.0012500
        k(  526) = (   0.3352676  -0.0446693   0.0000000), wk =   0.0012500
        k(  527) = (   0.3352676  -0.0148898   0.0000000), wk =   0.0012500
        k(  528) = (   0.3352676   0.0148898   0.0000000), wk =   0.0012500
        k(  529) = (   0.3352676   0.0446693   0.0000000), wk =   0.0012500
        k(  530) = (   0.3352676   0.0744488   0.0000000), wk =   0.0012500
        k(  531) = (   0.3352676   0.1042283   0.0000000), wk =   0.0012500
        k(  532) = (   0.3352676   0.1340078   0.0000000), wk =   0.0012500
        k(  533) = (   0.3352676   0.1637873   0.0000000), wk =   0.0012500
        k(  534) = (   0.3352676   0.1935668   0.0000000), wk =   0.0012500
        k(  535) = (   0.3352676   0.2233464   0.0000000), wk =   0.0012500
        k(  536) = (   0.3352676   0.2531259   0.0000000), wk =   0.0012500
        k(  537) = (   0.3352676   0.2829054   0.0000000), wk =   0.0012500
        k(  538) = (   0.3352676   0.3126849   0.0000000), wk =   0.0012500
        k(  539) = (   0.3352676   0.3424644   0.0000000), wk =   0.0012500
        k(  540) = (   0.3352676   0.3722439   0.0000000), wk =   0.0012500
        k(  541) = (   0.3352676  -0.7891571   0.0000000), wk =   0.0012500
        k(  542) = (   0.3352676  -0.7593776   0.0000000), wk =   0.0012500
        k(  543) = (   0.3352676  -0.7295981   0.0000000), wk =   0.0012500
        k(  544) = (   0.3352676  -0.6998186   0.0000000), wk =   0.0012500
        k(  545) = (   0.3352676  -0.6700391   0.0000000), wk =   0.0012500
        k(  546) = (   0.3352676  -0.6402595   0.0000000), wk =   0.0012500
        k(  547) = (   0.3352676  -0.6104800   0.0000000), wk =   0.0012500
        k(  548) = (   0.3352676  -0.5807005   0.0000000), wk =   0.0012500
        k(  549) = (   0.3352676  -0.5509210   0.0000000), wk =   0.0012500
        k(  550) = (   0.3352676  -0.5211415   0.0000000), wk =   0.0012500
        k(  551) = (   0.3352676  -0.4913620   0.0000000), wk =   0.0012500
        k(  552) = (   0.3352676  -0.4615825   0.0000000), wk =   0.0012500
        k(  553) = (   0.3352676  -0.4318029   0.0000000), wk =   0.0012500
        k(  554) = (   0.3352676  -0.4020234   0.0000000), wk =   0.0012500
        k(  555) = (   0.3352676  -0.3722439   0.0000000), wk =   0.0012500
        k(  556) = (   0.3352676  -0.3424644   0.0000000), wk =   0.0012500
        k(  557) = (   0.3352676  -0.3126849   0.0000000), wk =   0.0012500
        k(  558) = (   0.3352676  -0.2829054   0.0000000), wk =   0.0012500
        k(  559) = (   0.3352676  -0.2531259   0.0000000), wk =   0.0012500
        k(  560) = (   0.3352676  -0.2233464   0.0000000), wk =   0.0012500
        k(  561) = (   0.3610574  -0.2084566   0.0000000), wk =   0.0012500
        k(  562) = (   0.3610574  -0.1786771   0.0000000), wk =   0.0012500
        k(  563) = (   0.3610574  -0.1488976   0.0000000), wk =   0.0012500
        k(  564) = (   0.3610574  -0.1191181   0.0000000), wk =   0.0012500
        k(  565) = (   0.3610574  -0.0893385   0.0000000), wk =   0.0012500
        k(  566) = (   0.3610574  -0.0595590   0.0000000), wk =   0.0012500
        k(  567) = (   0.3610574  -0.0297795   0.0000000), wk =   0.0012500
        k(  568) = (   0.3610574   0.0000000   0.0000000), wk =   0.0012500
        k(  569) = (   0.3610574   0.0297795   0.0000000), wk =   0.0012500
        k(  570) = (   0.3610574   0.0595590   0.0000000), wk =   0.0012500
        k(  571) = (   0.3610574   0.0893385   0.0000000), wk =   0.0012500
        k(  572) = (   0.3610574   0.1191181   0.0000000), wk =   0.0012500
        k(  573) = (   0.3610574   0.1488976   0.0000000), wk =   0.0012500
        k(  574) = (   0.3610574   0.1786771   0.0000000), wk =   0.0012500
        k(  575) = (   0.3610574   0.2084566   0.0000000), wk =   0.0012500
        k(  576) = (   0.3610574   0.2382361   0.0000000), wk =   0.0012500
        k(  577) = (   0.3610574   0.2680156   0.0000000), wk =   0.0012500
        k(  578) = (   0.3610574   0.2977951   0.0000000), wk =   0.0012500
        k(  579) = (   0.3610574   0.3275746   0.0000000), wk =   0.0012500
        k(  580) = (   0.3610574   0.3573542   0.0000000), wk =   0.0012500
        k(  581) = (   0.3610574  -0.8040469   0.0000000), wk =   0.0012500
        k(  582) = (   0.3610574  -0.7742674   0.0000000), wk =   0.0012500
        k(  583) = (   0.3610574  -0.7444878   0.0000000), wk =   0.0012500
        k(  584) = (   0.3610574  -0.7147083   0.0000000), wk =   0.0012500
        k(  585) = (   0.3610574  -0.6849288   0.0000000), wk =   0.0012500
        k(  586) = (   0.3610574  -0.6551493   0.0000000), wk =   0.0012500
        k(  587) = (   0.3610574  -0.6253698   0.0000000), wk =   0.0012500
        k(  588) = (   0.3610574  -0.5955903   0.0000000), wk =   0.0012500
        k(  589) = (   0.3610574  -0.5658108   0.0000000), wk =   0.0012500
        k(  590) = (   0.3610574  -0.5360312   0.0000000), wk =   0.0012500
        k(  591) = (   0.3610574  -0.5062517   0.0000000), wk =   0.0012500
        k(  592) = (   0.3610574  -0.4764722   0.0000000), wk =   0.0012500
        k(  593) = (   0.3610574  -0.4466927   0.0000000), wk =   0.0012500
        k(  594) = (   0.3610574  -0.4169132   0.0000000), wk =   0.0012500
        k(  595) = (   0.3610574  -0.3871337   0.0000000), wk =   0.0012500
        k(  596) = (   0.3610574  -0.3573542   0.0000000), wk =   0.0012500
        k(  597) = (   0.3610574  -0.3275746   0.0000000), wk =   0.0012500
        k(  598) = (   0.3610574  -0.2977951   0.0000000), wk =   0.0012500
        k(  599) = (   0.3610574  -0.2680156   0.0000000), wk =   0.0012500
        k(  600) = (   0.3610574  -0.2382361   0.0000000), wk =   0.0012500
        k(  601) = (   0.3868472  -0.2233464   0.0000000), wk =   0.0012500
        k(  602) = (   0.3868472  -0.1935668   0.0000000), wk =   0.0012500
        k(  603) = (   0.3868472  -0.1637873   0.0000000), wk =   0.0012500
        k(  604) = (   0.3868472  -0.1340078   0.0000000), wk =   0.0012500
        k(  605) = (   0.3868472  -0.1042283   0.0000000), wk =   0.0012500
        k(  606) = (   0.3868472  -0.0744488   0.0000000), wk =   0.0012500
        k(  607) = (   0.3868472  -0.0446693   0.0000000), wk =   0.0012500
        k(  608) = (   0.3868472  -0.0148898   0.0000000), wk =   0.0012500
        k(  609) = (   0.3868472   0.0148898   0.0000000), wk =   0.0012500
        k(  610) = (   0.3868472   0.0446693   0.0000000), wk =   0.0012500
        k(  611) = (   0.3868472   0.0744488   0.0000000), wk =   0.0012500
        k(  612) = (   0.3868472   0.1042283   0.0000000), wk =   0.0012500
        k(  613) = (   0.3868472   0.1340078   0.0000000), wk =   0.0012500
        k(  614) = (   0.3868472   0.1637873   0.0000000), wk =   0.0012500
        k(  615) = (   0.3868472   0.1935668   0.0000000), wk =   0.0012500
        k(  616) = (   0.3868472   0.2233464   0.0000000), wk =   0.0012500
        k(  617) = (   0.3868472   0.2531259   0.0000000), wk =   0.0012500
        k(  618) = (   0.3868472   0.2829054   0.0000000), wk =   0.0012500
        k(  619) = (   0.3868472   0.3126849   0.0000000), wk =   0.0012500
        k(  620) = (   0.3868472   0.3424644   0.0000000), wk =   0.0012500
        k(  621) = (   0.3868472  -0.8189366   0.0000000), wk =   0.0012500
        k(  622) = (   0.3868472  -0.7891571   0.0000000), wk =   0.0012500
        k(  623) = (   0.3868472  -0.7593776   0.0000000), wk =   0.0012500
        k(  624) = (   0.3868472  -0.7295981   0.0000000), wk =   0.0012500
        k(  625) = (   0.3868472  -0.6998186   0.0000000), wk =   0.0012500
        k(  626) = (   0.3868472  -0.6700391   0.0000000), wk =   0.0012500
        k(  627) = (   0.3868472  -0.6402595   0.0000000), wk =   0.0012500
        k(  628) = (   0.3868472  -0.6104800   0.0000000), wk =   0.0012500
        k(  629) = (   0.3868472  -0.5807005   0.0000000), wk =   0.0012500
        k(  630) = (   0.3868472  -0.5509210   0.0000000), wk =   0.0012500
        k(  631) = (   0.3868472  -0.5211415   0.0000000), wk =   0.0012500
        k(  632) = (   0.3868472  -0.4913620   0.0000000), wk =   0.0012500
        k(  633) = (   0.3868472  -0.4615825   0.0000000), wk =   0.0012500
        k(  634) = (   0.3868472  -0.4318029   0.0000000), wk =   0.0012500
        k(  635) = (   0.3868472  -0.4020234   0.0000000), wk =   0.0012500
        k(  636) = (   0.3868472  -0.3722439   0.0000000), wk =   0.0012500
        k(  637) = (   0.3868472  -0.3424644   0.0000000), wk =   0.0012500
        k(  638) = (   0.3868472  -0.3126849   0.0000000), wk =   0.0012500
        k(  639) = (   0.3868472  -0.2829054   0.0000000), wk =   0.0012500
        k(  640) = (   0.3868472  -0.2531259   0.0000000), wk =   0.0012500
        k(  641) = (   0.4126370  -0.2382361   0.0000000), wk =   0.0012500
        k(  642) = (   0.4126370  -0.2084566   0.0000000), wk =   0.0012500
        k(  643) = (   0.4126370  -0.1786771   0.0000000), wk =   0.0012500
        k(  644) = (   0.4126370  -0.1488976   0.0000000), wk =   0.0012500
        k(  645) = (   0.4126370  -0.1191181   0.0000000), wk =   0.0012500
        k(  646) = (   0.4126370  -0.0893385   0.0000000), wk =   0.0012500
        k(  647) = (   0.4126370  -0.0595590   0.0000000), wk =   0.0012500
        k(  648) = (   0.4126370  -0.0297795   0.0000000), wk =   0.0012500
        k(  649) = (   0.4126370   0.0000000   0.0000000), wk =   0.0012500
        k(  650) = (   0.4126370   0.0297795   0.0000000), wk =   0.0012500
        k(  651) = (   0.4126370   0.0595590   0.0000000), wk =   0.0012500
        k(  652) = (   0.4126370   0.0893385   0.0000000), wk =   0.0012500
        k(  653) = (   0.4126370   0.1191181   0.0000000), wk =   0.0012500
        k(  654) = (   0.4126370   0.1488976   0.0000000), wk =   0.0012500
        k(  655) = (   0.4126370   0.1786771   0.0000000), wk =   0.0012500
        k(  656) = (   0.4126370   0.2084566   0.0000000), wk =   0.0012500
        k(  657) = (   0.4126370   0.2382361   0.0000000), wk =   0.0012500
        k(  658) = (   0.4126370   0.2680156   0.0000000), wk =   0.0012500
        k(  659) = (   0.4126370   0.2977951   0.0000000), wk =   0.0012500
        k(  660) = (   0.4126370   0.3275746   0.0000000), wk =   0.0012500
        k(  661) = (   0.4126370  -0.8338264   0.0000000), wk =   0.0012500
        k(  662) = (   0.4126370  -0.8040469   0.0000000), wk =   0.0012500
        k(  663) = (   0.4126370  -0.7742674   0.0000000), wk =   0.0012500
        k(  664) = (   0.4126370  -0.7444878   0.0000000), wk =   0.0012500
        k(  665) = (   0.4126370  -0.7147083   0.0000000), wk =   0.0012500
        k(  666) = (   0.4126370  -0.6849288   0.0000000), wk =   0.0012500
        k(  667) = (   0.4126370  -0.6551493   0.0000000), wk =   0.0012500
        k(  668) = (   0.4126370  -0.6253698   0.0000000), wk =   0.0012500
        k(  669) = (   0.4126370  -0.5955903   0.0000000), wk =   0.0012500
        k(  670) = (   0.4126370  -0.5658108   0.0000000), wk =   0.0012500
        k(  671) = (   0.4126370  -0.5360312   0.0000000), wk =   0.0012500
        k(  672) = (   0.4126370  -0.5062517   0.0000000), wk =   0.0012500
        k(  673) = (   0.4126370  -0.4764722   0.0000000), wk =   0.0012500
        k(  674) = (   0.4126370  -0.4466927   0.0000000), wk =   0.0012500
        k(  675) = (   0.4126370  -0.4169132   0.0000000), wk =   0.0012500
        k(  676) = (   0.4126370  -0.3871337   0.0000000), wk =   0.0012500
        k(  677) = (   0.4126370  -0.3573542   0.0000000), wk =   0.0012500
        k(  678) = (   0.4126370  -0.3275746   0.0000000), wk =   0.0012500
        k(  679) = (   0.4126370  -0.2977951   0.0000000), wk =   0.0012500
        k(  680) = (   0.4126370  -0.2680156   0.0000000), wk =   0.0012500
        k(  681) = (   0.4384269  -0.2531259   0.0000000), wk =   0.0012500
        k(  682) = (   0.4384269  -0.2233464   0.0000000), wk =   0.0012500
        k(  683) = (   0.4384269  -0.1935668   0.0000000), wk =   0.0012500
        k(  684) = (   0.4384269  -0.1637873   0.0000000), wk =   0.0012500
        k(  685) = (   0.4384269  -0.1340078   0.0000000), wk =   0.0012500
        k(  686) = (   0.4384269  -0.1042283   0.0000000), wk =   0.0012500
        k(  687) = (   0.4384269  -0.0744488   0.0000000), wk =   0.0012500
        k(  688) = (   0.4384269  -0.0446693   0.0000000), wk =   0.0012500
        k(  689) = (   0.4384269  -0.0148898   0.0000000), wk =   0.0012500
        k(  690) = (   0.4384269   0.0148898   0.0000000), wk =   0.0012500
        k(  691) = (   0.4384269   0.0446693   0.0000000), wk =   0.0012500
        k(  692) = (   0.4384269   0.0744488   0.0000000), wk =   0.0012500
        k(  693) = (   0.4384269   0.1042283   0.0000000), wk =   0.0012500
        k(  694) = (   0.4384269   0.1340078   0.0000000), wk =   0.0012500
        k(  695) = (   0.4384269   0.1637873   0.0000000), wk =   0.0012500
        k(  696) = (   0.4384269   0.1935668   0.0000000), wk =   0.0012500
        k(  697) = (   0.4384269   0.2233464   0.0000000), wk =   0.0012500
        k(  698) = (   0.4384269   0.2531259   0.0000000), wk =   0.0012500
        k(  699) = (   0.4384269   0.2829054   0.0000000), wk =   0.0012500
        k(  700) = (   0.4384269   0.3126849   0.0000000), wk =   0.0012500
        k(  701) = (   0.4384269  -0.8487161   0.0000000), wk =   0.0012500
        k(  702) = (   0.4384269  -0.8189366   0.0000000), wk =   0.0012500
        k(  703) = (   0.4384269  -0.7891571   0.0000000), wk =   0.0012500
        k(  704) = (   0.4384269  -0.7593776   0.0000000), wk =   0.0012500
        k(  705) = (   0.4384269  -0.7295981   0.0000000), wk =   0.0012500
        k(  706) = (   0.4384269  -0.6998186   0.0000000), wk =   0.0012500
        k(  707) = (   0.4384269  -0.6700391   0.0000000), wk =   0.0012500
        k(  708) = (   0.4384269  -0.6402595   0.0000000), wk =   0.0012500
        k(  709) = (   0.4384269  -0.6104800   0.0000000), wk =   0.0012500
        k(  710) = (   0.4384269  -0.5807005   0.0000000), wk =   0.0012500
        k(  711) = (   0.4384269  -0.5509210   0.0000000), wk =   0.0012500
        k(  712) = (   0.4384269  -0.5211415   0.0000000), wk =   0.0012500
        k(  713) = (   0.4384269  -0.4913620   0.0000000), wk =   0.0012500
        k(  714) = (   0.4384269  -0.4615825   0.0000000), wk =   0.0012500
        k(  715) = (   0.4384269  -0.4318029   0.0000000), wk =   0.0012500
        k(  716) = (   0.4384269  -0.4020234   0.0000000), wk =   0.0012500
        k(  717) = (   0.4384269  -0.3722439   0.0000000), wk =   0.0012500
        k(  718) = (   0.4384269  -0.3424644   0.0000000), wk =   0.0012500
        k(  719) = (   0.4384269  -0.3126849   0.0000000), wk =   0.0012500
        k(  720) = (   0.4384269  -0.2829054   0.0000000), wk =   0.0012500
        k(  721) = (   0.4642167  -0.2680156   0.0000000), wk =   0.0012500
        k(  722) = (   0.4642167  -0.2382361   0.0000000), wk =   0.0012500
        k(  723) = (   0.4642167  -0.2084566   0.0000000), wk =   0.0012500
        k(  724) = (   0.4642167  -0.1786771   0.0000000), wk =   0.0012500
        k(  725) = (   0.4642167  -0.1488976   0.0000000), wk =   0.0012500
        k(  726) = (   0.4642167  -0.1191181   0.0000000), wk =   0.0012500
        k(  727) = (   0.4642167  -0.0893385   0.0000000), wk =   0.0012500
        k(  728) = (   0.4642167  -0.0595590   0.0000000), wk =   0.0012500
        k(  729) = (   0.4642167  -0.0297795   0.0000000), wk =   0.0012500
        k(  730) = (   0.4642167   0.0000000   0.0000000), wk =   0.0012500
        k(  731) = (   0.4642167   0.0297795   0.0000000), wk =   0.0012500
        k(  732) = (   0.4642167   0.0595590   0.0000000), wk =   0.0012500
        k(  733) = (   0.4642167   0.0893385   0.0000000), wk =   0.0012500
        k(  734) = (   0.4642167   0.1191181   0.0000000), wk =   0.0012500
        k(  735) = (   0.4642167   0.1488976   0.0000000), wk =   0.0012500
        k(  736) = (   0.4642167   0.1786771   0.0000000), wk =   0.0012500
        k(  737) = (   0.4642167   0.2084566   0.0000000), wk =   0.0012500
        k(  738) = (   0.4642167   0.2382361   0.0000000), wk =   0.0012500
        k(  739) = (   0.4642167   0.2680156   0.0000000), wk =   0.0012500
        k(  740) = (   0.4642167   0.2977951   0.0000000), wk =   0.0012500
        k(  741) = (   0.4642167  -0.8636059   0.0000000), wk =   0.0012500
        k(  742) = (   0.4642167  -0.8338264   0.0000000), wk =   0.0012500
        k(  743) = (   0.4642167  -0.8040469   0.0000000), wk =   0.0012500
        k(  744) = (   0.4642167  -0.7742674   0.0000000), wk =   0.0012500
        k(  745) = (   0.4642167  -0.7444878   0.0000000), wk =   0.0012500
        k(  746) = (   0.4642167  -0.7147083   0.0000000), wk =   0.0012500
        k(  747) = (   0.4642167  -0.6849288   0.0000000), wk =   0.0012500
        k(  748) = (   0.4642167  -0.6551493   0.0000000), wk =   0.0012500
        k(  749) = (   0.4642167  -0.6253698   0.0000000), wk =   0.0012500
        k(  750) = (   0.4642167  -0.5955903   0.0000000), wk =   0.0012500
        k(  751) = (   0.4642167  -0.5658108   0.0000000), wk =   0.0012500
        k(  752) = (   0.4642167  -0.5360312   0.0000000), wk =   0.0012500
        k(  753) = (   0.4642167  -0.5062517   0.0000000), wk =   0.0012500
        k(  754) = (   0.4642167  -0.4764722   0.0000000), wk =   0.0012500
        k(  755) = (   0.4642167  -0.4466927   0.0000000), wk =   0.0012500
        k(  756) = (   0.4642167  -0.4169132   0.0000000), wk =   0.0012500
        k(  757) = (   0.4642167  -0.3871337   0.0000000), wk =   0.0012500
        k(  758) = (   0.4642167  -0.3573542   0.0000000), wk =   0.0012500
        k(  759) = (   0.4642167  -0.3275746   0.0000000), wk =   0.0012500
        k(  760) = (   0.4642167  -0.2977951   0.0000000), wk =   0.0012500
        k(  761) = (   0.4900065  -0.2829054   0.0000000), wk =   0.0012500
        k(  762) = (   0.4900065  -0.2531259   0.0000000), wk =   0.0012500
        k(  763) = (   0.4900065  -0.2233464   0.0000000), wk =   0.0012500
        k(  764) = (   0.4900065  -0.1935668   0.0000000), wk =   0.0012500
        k(  765) = (   0.4900065  -0.1637873   0.0000000), wk =   0.0012500
        k(  766) = (   0.4900065  -0.1340078   0.0000000), wk =   0.0012500
        k(  767) = (   0.4900065  -0.1042283   0.0000000), wk =   0.0012500
        k(  768) = (   0.4900065  -0.0744488   0.0000000), wk =   0.0012500
        k(  769) = (   0.4900065  -0.0446693   0.0000000), wk =   0.0012500
        k(  770) = (   0.4900065  -0.0148898   0.0000000), wk =   0.0012500
        k(  771) = (   0.4900065   0.0148898   0.0000000), wk =   0.0012500
        k(  772) = (   0.4900065   0.0446693   0.0000000), wk =   0.0012500
        k(  773) = (   0.4900065   0.0744488   0.0000000), wk =   0.0012500
        k(  774) = (   0.4900065   0.1042283   0.0000000), wk =   0.0012500
        k(  775) = (   0.4900065   0.1340078   0.0000000), wk =   0.0012500
        k(  776) = (   0.4900065   0.1637873   0.0000000), wk =   0.0012500
        k(  777) = (   0.4900065   0.1935668   0.0000000), wk =   0.0012500
        k(  778) = (   0.4900065   0.2233464   0.0000000), wk =   0.0012500
        k(  779) = (   0.4900065   0.2531259   0.0000000), wk =   0.0012500
        k(  780) = (   0.4900065   0.2829054   0.0000000), wk =   0.0012500
        k(  781) = (   0.4900065  -0.8784956   0.0000000), wk =   0.0012500
        k(  782) = (   0.4900065  -0.8487161   0.0000000), wk =   0.0012500
        k(  783) = (   0.4900065  -0.8189366   0.0000000), wk =   0.0012500
        k(  784) = (   0.4900065  -0.7891571   0.0000000), wk =   0.0012500
        k(  785) = (   0.4900065  -0.7593776   0.0000000), wk =   0.0012500
        k(  786) = (   0.4900065  -0.7295981   0.0000000), wk =   0.0012500
        k(  787) = (   0.4900065  -0.6998186   0.0000000), wk =   0.0012500
        k(  788) = (   0.4900065  -0.6700391   0.0000000), wk =   0.0012500
        k(  789) = (   0.4900065  -0.6402595   0.0000000), wk =   0.0012500
        k(  790) = (   0.4900065  -0.6104800   0.0000000), wk =   0.0012500
        k(  791) = (   0.4900065  -0.5807005   0.0000000), wk =   0.0012500
        k(  792) = (   0.4900065  -0.5509210   0.0000000), wk =   0.0012500
        k(  793) = (   0.4900065  -0.5211415   0.0000000), wk =   0.0012500
        k(  794) = (   0.4900065  -0.4913620   0.0000000), wk =   0.0012500
        k(  795) = (   0.4900065  -0.4615825   0.0000000), wk =   0.0012500
        k(  796) = (   0.4900065  -0.4318029   0.0000000), wk =   0.0012500
        k(  797) = (   0.4900065  -0.4020234   0.0000000), wk =   0.0012500
        k(  798) = (   0.4900065  -0.3722439   0.0000000), wk =   0.0012500
        k(  799) = (   0.4900065  -0.3424644   0.0000000), wk =   0.0012500
        k(  800) = (   0.4900065  -0.3126849   0.0000000), wk =   0.0012500
        k(  801) = (  -0.5157963   0.2977951   0.0000000), wk =   0.0012500
        k(  802) = (  -0.5157963   0.3275746   0.0000000), wk =   0.0012500
        k(  803) = (  -0.5157963   0.3573542   0.0000000), wk =   0.0012500
        k(  804) = (  -0.5157963   0.3871337   0.0000000), wk =   0.0012500
        k(  805) = (  -0.5157963   0.4169132   0.0000000), wk =   0.0012500
        k(  806) = (  -0.5157963   0.4466927   0.0000000), wk =   0.0012500
        k(  807) = (  -0.5157963   0.4764722   0.0000000), wk =   0.0012500
        k(  808) = (  -0.5157963   0.5062517   0.0000000), wk =   0.0012500
        k(  809) = (  -0.5157963   0.5360312   0.0000000), wk =   0.0012500
        k(  810) = (  -0.5157963   0.5658108   0.0000000), wk =   0.0012500
        k(  811) = (  -0.5157963   0.5955903   0.0000000), wk =   0.0012500
        k(  812) = (  -0.5157963   0.6253698   0.0000000), wk =   0.0012500
        k(  813) = (  -0.5157963   0.6551493   0.0000000), wk =   0.0012500
        k(  814) = (  -0.5157963   0.6849288   0.0000000), wk =   0.0012500
        k(  815) = (  -0.5157963   0.7147083   0.0000000), wk =   0.0012500
        k(  816) = (  -0.5157963   0.7444878   0.0000000), wk =   0.0012500
        k(  817) = (  -0.5157963   0.7742674   0.0000000), wk =   0.0012500
        k(  818) = (  -0.5157963   0.8040469   0.0000000), wk =   0.0012500
        k(  819) = (  -0.5157963   0.8338264   0.0000000), wk =   0.0012500
        k(  820) = (  -0.5157963   0.8636059   0.0000000), wk =   0.0012500
        k(  821) = (  -0.5157963  -0.2977951   0.0000000), wk =   0.0012500
        k(  822) = (  -0.5157963  -0.2680156   0.0000000), wk =   0.0012500
        k(  823) = (  -0.5157963  -0.2382361   0.0000000), wk =   0.0012500
        k(  824) = (  -0.5157963  -0.2084566   0.0000000), wk =   0.0012500
        k(  825) = (  -0.5157963  -0.1786771   0.0000000), wk =   0.0012500
        k(  826) = (  -0.5157963  -0.1488976   0.0000000), wk =   0.0012500
        k(  827) = (  -0.5157963  -0.1191181   0.0000000), wk =   0.0012500
        k(  828) = (  -0.5157963  -0.0893385   0.0000000), wk =   0.0012500
        k(  829) = (  -0.5157963  -0.0595590   0.0000000), wk =   0.0012500
        k(  830) = (  -0.5157963  -0.0297795   0.0000000), wk =   0.0012500
        k(  831) = (  -0.5157963  -0.0000000   0.0000000), wk =   0.0012500
        k(  832) = (  -0.5157963   0.0297795   0.0000000), wk =   0.0012500
        k(  833) = (  -0.5157963   0.0595590   0.0000000), wk =   0.0012500
        k(  834) = (  -0.5157963   0.0893385   0.0000000), wk =   0.0012500
        k(  835) = (  -0.5157963   0.1191181   0.0000000), wk =   0.0012500
        k(  836) = (  -0.5157963   0.1488976   0.0000000), wk =   0.0012500
        k(  837) = (  -0.5157963   0.1786771   0.0000000), wk =   0.0012500
        k(  838) = (  -0.5157963   0.2084566   0.0000000), wk =   0.0012500
        k(  839) = (  -0.5157963   0.2382361   0.0000000), wk =   0.0012500
        k(  840) = (  -0.5157963   0.2680156   0.0000000), wk =   0.0012500
        k(  841) = (  -0.4900065   0.2829054   0.0000000), wk =   0.0012500
        k(  842) = (  -0.4900065   0.3126849   0.0000000), wk =   0.0012500
        k(  843) = (  -0.4900065   0.3424644   0.0000000), wk =   0.0012500
        k(  844) = (  -0.4900065   0.3722439   0.0000000), wk =   0.0012500
        k(  845) = (  -0.4900065   0.4020234   0.0000000), wk =   0.0012500
        k(  846) = (  -0.4900065   0.4318029   0.0000000), wk =   0.0012500
        k(  847) = (  -0.4900065   0.4615825   0.0000000), wk =   0.0012500
        k(  848) = (  -0.4900065   0.4913620   0.0000000), wk =   0.0012500
        k(  849) = (  -0.4900065   0.5211415   0.0000000), wk =   0.0012500
        k(  850) = (  -0.4900065   0.5509210   0.0000000), wk =   0.0012500
        k(  851) = (  -0.4900065   0.5807005   0.0000000), wk =   0.0012500
        k(  852) = (  -0.4900065   0.6104800   0.0000000), wk =   0.0012500
        k(  853) = (  -0.4900065   0.6402595   0.0000000), wk =   0.0012500
        k(  854) = (  -0.4900065   0.6700391   0.0000000), wk =   0.0012500
        k(  855) = (  -0.4900065   0.6998186   0.0000000), wk =   0.0012500
        k(  856) = (  -0.4900065   0.7295981   0.0000000), wk =   0.0012500
        k(  857) = (  -0.4900065   0.7593776   0.0000000), wk =   0.0012500
        k(  858) = (  -0.4900065   0.7891571   0.0000000), wk =   0.0012500
        k(  859) = (  -0.4900065   0.8189366   0.0000000), wk =   0.0012500
        k(  860) = (  -0.4900065   0.8487161   0.0000000), wk =   0.0012500
        k(  861) = (  -0.4900065  -0.3126849   0.0000000), wk =   0.0012500
        k(  862) = (  -0.4900065  -0.2829054   0.0000000), wk =   0.0012500
        k(  863) = (  -0.4900065  -0.2531259   0.0000000), wk =   0.0012500
        k(  864) = (  -0.4900065  -0.2233464   0.0000000), wk =   0.0012500
        k(  865) = (  -0.4900065  -0.1935668   0.0000000), wk =   0.0012500
        k(  866) = (  -0.4900065  -0.1637873   0.0000000), wk =   0.0012500
        k(  867) = (  -0.4900065  -0.1340078   0.0000000), wk =   0.0012500
        k(  868) = (  -0.4900065  -0.1042283   0.0000000), wk =   0.0012500
        k(  869) = (  -0.4900065  -0.0744488   0.0000000), wk =   0.0012500
        k(  870) = (  -0.4900065  -0.0446693   0.0000000), wk =   0.0012500
        k(  871) = (  -0.4900065  -0.0148898   0.0000000), wk =   0.0012500
        k(  872) = (  -0.4900065   0.0148898   0.0000000), wk =   0.0012500
        k(  873) = (  -0.4900065   0.0446693   0.0000000), wk =   0.0012500
        k(  874) = (  -0.4900065   0.0744488   0.0000000), wk =   0.0012500
        k(  875) = (  -0.4900065   0.1042283   0.0000000), wk =   0.0012500
        k(  876) = (  -0.4900065   0.1340078   0.0000000), wk =   0.0012500
        k(  877) = (  -0.4900065   0.1637873   0.0000000), wk =   0.0012500
        k(  878) = (  -0.4900065   0.1935668   0.0000000), wk =   0.0012500
        k(  879) = (  -0.4900065   0.2233464   0.0000000), wk =   0.0012500
        k(  880) = (  -0.4900065   0.2531259   0.0000000), wk =   0.0012500
        k(  881) = (  -0.4642167   0.2680156   0.0000000), wk =   0.0012500
        k(  882) = (  -0.4642167   0.2977951   0.0000000), wk =   0.0012500
        k(  883) = (  -0.4642167   0.3275746   0.0000000), wk =   0.0012500
        k(  884) = (  -0.4642167   0.3573542   0.0000000), wk =   0.0012500
        k(  885) = (  -0.4642167   0.3871337   0.0000000), wk =   0.0012500
        k(  886) = (  -0.4642167   0.4169132   0.0000000), wk =   0.0012500
        k(  887) = (  -0.4642167   0.4466927   0.0000000), wk =   0.0012500
        k(  888) = (  -0.4642167   0.4764722   0.0000000), wk =   0.0012500
        k(  889) = (  -0.4642167   0.5062517   0.0000000), wk =   0.0012500
        k(  890) = (  -0.4642167   0.5360312   0.0000000), wk =   0.0012500
        k(  891) = (  -0.4642167   0.5658108   0.0000000), wk =   0.0012500
        k(  892) = (  -0.4642167   0.5955903   0.0000000), wk =   0.0012500
        k(  893) = (  -0.4642167   0.6253698   0.0000000), wk =   0.0012500
        k(  894) = (  -0.4642167   0.6551493   0.0000000), wk =   0.0012500
        k(  895) = (  -0.4642167   0.6849288   0.0000000), wk =   0.0012500
        k(  896) = (  -0.4642167   0.7147083   0.0000000), wk =   0.0012500
        k(  897) = (  -0.4642167   0.7444878   0.0000000), wk =   0.0012500
        k(  898) = (  -0.4642167   0.7742674   0.0000000), wk =   0.0012500
        k(  899) = (  -0.4642167   0.8040469   0.0000000), wk =   0.0012500
        k(  900) = (  -0.4642167   0.8338264   0.0000000), wk =   0.0012500
        k(  901) = (  -0.4642167  -0.3275746   0.0000000), wk =   0.0012500
        k(  902) = (  -0.4642167  -0.2977951   0.0000000), wk =   0.0012500
        k(  903) = (  -0.4642167  -0.2680156   0.0000000), wk =   0.0012500
        k(  904) = (  -0.4642167  -0.2382361   0.0000000), wk =   0.0012500
        k(  905) = (  -0.4642167  -0.2084566   0.0000000), wk =   0.0012500
        k(  906) = (  -0.4642167  -0.1786771   0.0000000), wk =   0.0012500
        k(  907) = (  -0.4642167  -0.1488976   0.0000000), wk =   0.0012500
        k(  908) = (  -0.4642167  -0.1191181   0.0000000), wk =   0.0012500
        k(  909) = (  -0.4642167  -0.0893385   0.0000000), wk =   0.0012500
        k(  910) = (  -0.4642167  -0.0595590   0.0000000), wk =   0.0012500
        k(  911) = (  -0.4642167  -0.0297795   0.0000000), wk =   0.0012500
        k(  912) = (  -0.4642167  -0.0000000   0.0000000), wk =   0.0012500
        k(  913) = (  -0.4642167   0.0297795   0.0000000), wk =   0.0012500
        k(  914) = (  -0.4642167   0.0595590   0.0000000), wk =   0.0012500
        k(  915) = (  -0.4642167   0.0893385   0.0000000), wk =   0.0012500
        k(  916) = (  -0.4642167   0.1191181   0.0000000), wk =   0.0012500
        k(  917) = (  -0.4642167   0.1488976   0.0000000), wk =   0.0012500
        k(  918) = (  -0.4642167   0.1786771   0.0000000), wk =   0.0012500
        k(  919) = (  -0.4642167   0.2084566   0.0000000), wk =   0.0012500
        k(  920) = (  -0.4642167   0.2382361   0.0000000), wk =   0.0012500
        k(  921) = (  -0.4384269   0.2531259   0.0000000), wk =   0.0012500
        k(  922) = (  -0.4384269   0.2829054   0.0000000), wk =   0.0012500
        k(  923) = (  -0.4384269   0.3126849   0.0000000), wk =   0.0012500
        k(  924) = (  -0.4384269   0.3424644   0.0000000), wk =   0.0012500
        k(  925) = (  -0.4384269   0.3722439   0.0000000), wk =   0.0012500
        k(  926) = (  -0.4384269   0.4020234   0.0000000), wk =   0.0012500
        k(  927) = (  -0.4384269   0.4318029   0.0000000), wk =   0.0012500
        k(  928) = (  -0.4384269   0.4615825   0.0000000), wk =   0.0012500
        k(  929) = (  -0.4384269   0.4913620   0.0000000), wk =   0.0012500
        k(  930) = (  -0.4384269   0.5211415   0.0000000), wk =   0.0012500
        k(  931) = (  -0.4384269   0.5509210   0.0000000), wk =   0.0012500
        k(  932) = (  -0.4384269   0.5807005   0.0000000), wk =   0.0012500
        k(  933) = (  -0.4384269   0.6104800   0.0000000), wk =   0.0012500
        k(  934) = (  -0.4384269   0.6402595   0.0000000), wk =   0.0012500
        k(  935) = (  -0.4384269   0.6700391   0.0000000), wk =   0.0012500
        k(  936) = (  -0.4384269   0.6998186   0.0000000), wk =   0.0012500
        k(  937) = (  -0.4384269   0.7295981   0.0000000), wk =   0.0012500
        k(  938) = (  -0.4384269   0.7593776   0.0000000), wk =   0.0012500
        k(  939) = (  -0.4384269   0.7891571   0.0000000), wk =   0.0012500
        k(  940) = (  -0.4384269   0.8189366   0.0000000), wk =   0.0012500
        k(  941) = (  -0.4384269  -0.3424644   0.0000000), wk =   0.0012500
        k(  942) = (  -0.4384269  -0.3126849   0.0000000), wk =   0.0012500
        k(  943) = (  -0.4384269  -0.2829054   0.0000000), wk =   0.0012500
        k(  944) = (  -0.4384269  -0.2531259   0.0000000), wk =   0.0012500
        k(  945) = (  -0.4384269  -0.2233464   0.0000000), wk =   0.0012500
        k(  946) = (  -0.4384269  -0.1935668   0.0000000), wk =   0.0012500
        k(  947) = (  -0.4384269  -0.1637873   0.0000000), wk =   0.0012500
        k(  948) = (  -0.4384269  -0.1340078   0.0000000), wk =   0.0012500
        k(  949) = (  -0.4384269  -0.1042283   0.0000000), wk =   0.0012500
        k(  950) = (  -0.4384269  -0.0744488   0.0000000), wk =   0.0012500
        k(  951) = (  -0.4384269  -0.0446693   0.0000000), wk =   0.0012500
        k(  952) = (  -0.4384269  -0.0148898   0.0000000), wk =   0.0012500
        k(  953) = (  -0.4384269   0.0148898   0.0000000), wk =   0.0012500
        k(  954) = (  -0.4384269   0.0446693   0.0000000), wk =   0.0012500
        k(  955) = (  -0.4384269   0.0744488   0.0000000), wk =   0.0012500
        k(  956) = (  -0.4384269   0.1042283   0.0000000), wk =   0.0012500
        k(  957) = (  -0.4384269   0.1340078   0.0000000), wk =   0.0012500
        k(  958) = (  -0.4384269   0.1637873   0.0000000), wk =   0.0012500
        k(  959) = (  -0.4384269   0.1935668   0.0000000), wk =   0.0012500
        k(  960) = (  -0.4384269   0.2233464   0.0000000), wk =   0.0012500
        k(  961) = (  -0.4126370   0.2382361   0.0000000), wk =   0.0012500
        k(  962) = (  -0.4126370   0.2680156   0.0000000), wk =   0.0012500
        k(  963) = (  -0.4126370   0.2977951   0.0000000), wk =   0.0012500
        k(  964) = (  -0.4126370   0.3275746   0.0000000), wk =   0.0012500
        k(  965) = (  -0.4126370   0.3573542   0.0000000), wk =   0.0012500
        k(  966) = (  -0.4126370   0.3871337   0.0000000), wk =   0.0012500
        k(  967) = (  -0.4126370   0.4169132   0.0000000), wk =   0.0012500
        k(  968) = (  -0.4126370   0.4466927   0.0000000), wk =   0.0012500
        k(  969) = (  -0.4126370   0.4764722   0.0000000), wk =   0.0012500
        k(  970) = (  -0.4126370   0.5062517   0.0000000), wk =   0.0012500
        k(  971) = (  -0.4126370   0.5360312   0.0000000), wk =   0.0012500
        k(  972) = (  -0.4126370   0.5658108   0.0000000), wk =   0.0012500
        k(  973) = (  -0.4126370   0.5955903   0.0000000), wk =   0.0012500
        k(  974) = (  -0.4126370   0.6253698   0.0000000), wk =   0.0012500
        k(  975) = (  -0.4126370   0.6551493   0.0000000), wk =   0.0012500
        k(  976) = (  -0.4126370   0.6849288   0.0000000), wk =   0.0012500
        k(  977) = (  -0.4126370   0.7147083   0.0000000), wk =   0.0012500
        k(  978) = (  -0.4126370   0.7444878   0.0000000), wk =   0.0012500
[...]
     0.0000   0.0000   0.0000   0.0000   0.0000   0.0000   0.0000   0.0000
     0.0000   0.0000   0.0000   0.0000   0.0000   0.0000   0.0000   0.0000
     0.0000   0.0000   0.0000   0.0000   0.0000   0.0000   0.0000   0.0000
     0.0000   0.0000   0.0000   0.0000   0.0000   0.0000   0.0000   0.0000

          k =-0.0258-0.1936 0.0000 (  7138 PWs)   bands (ev):

   -36.3090 -36.3081 -36.2942 -36.2939 -36.2867 -21.0401 -21.0315 -20.9811
   -20.9773 -20.9602 -11.8664  -6.2098  -1.9664  -0.8137  -0.7801   2.1034
     3.4045   3.7779   4.5828   5.0913   6.5583   7.3955   8.3274   8.4514
     9.0503   9.5323  10.2250  11.1019  11.6833  12.0917  12.6199  13.0625
    13.3560  13.8968  14.4043  14.6913  14.8914  15.1718  15.5669  15.7625
    16.0114  16.6418  16.9865  17.1773  18.1851  18.2984  18.5297  18.8753
    19.0093  19.3438  19.5244  19.7670  19.9109  21.0187  21.2449  21.9183
    22.3719  22.5459  22.8699  22.9744  23.1026  23.3807  23.7599  24.1021
    24.4848  24.7725  24.9865  25.1033  25.2933  26.0079  26.3861  26.9826
    27.2974  28.6227  28.8828  29.0946  29.5347  29.7673  30.1483  30.8905

     occupation numbers 
     1.0000   1.0000   1.0000   1.0000   1.0000   1.0000   1.0000   1.0000
     1.0000   1.0000   1.0000   1.0000   1.0000   1.0000   1.0000   0.0000
     0.0000   0.0000   0.0000   0.0000   0.0000   0.0000   0.0000   0.0000
     0.0000   0.0000   0.0000   0.0000   0.0000   0.0000   0.0000   0.0000
     0.0000   0.0000   0.0000   0.0000   0.0000   0.0000   0.0000   0.0000
     0.0000   0.0000   0.0000   0.0000   0.0000   0.0000   0.0000   0.0000
     0.0000   0.0000   0.0000   0.0000   0.0000   0.0000   0.0000   0.0000
     0.0000   0.0000   0.0000   0.0000   0.0000   0.0000   0.0000   0.0000
     0.0000   0.0000   0.0000   0.0000   0.0000   0.0000   0.0000   0.0000
     0.0000   0.0000   0.0000   0.0000   0.0000   0.0000   0.0000   0.0000

          k =-0.0258-0.1638 0.0000 (  7139 PWs)   bands (ev):

   -36.3090 -36.3084 -36.2942 -36.2939 -36.2868 -21.0395 -21.0331 -20.9799
   -20.9772 -20.9612 -11.9347  -6.2222  -1.6720  -0.8160  -0.6935   2.2449
     3.2902   3.7246   4.4944   5.0154   6.6494   7.4331   8.3107   8.4140
     9.0500   9.2002  10.4365  10.9544  11.5629  12.0768  12.5506  13.4219
    13.6499  13.8747  14.5489  14.6890  14.8685  15.1889  15.4554  15.8618
    16.0639  16.3041  17.3370  17.5650  17.7687  18.0722  18.4039  18.8256
    18.9904  19.1481  19.3425  19.7474  19.8836  20.4440  20.6116  21.9727
    22.1759  22.6780  22.7878  22.8810  23.2915  23.4308  23.9016  24.0879
    24.4457  24.6244  24.7699  25.0418  25.3793  26.1893  26.5221  26.9564
    27.8583  28.3972  28.7304  29.1621  29.2518  29.7880  29.9940  30.5976

     occupation numbers 
     1.0000   1.0000   1.0000   1.0000   1.0000   1.0000   1.0000   1.0000
     1.0000   1.0000   1.0000   1.0000   1.0000   1.0000   1.0000   0.0000
     0.0000   0.0000   0.0000   0.0000   0.0000   0.0000   0.0000   0.0000
     0.0000   0.0000   0.0000   0.0000   0.0000   0.0000   0.0000   0.0000
     0.0000   0.0000   0.0000   0.0000   0.0000   0.0000   0.0000   0.0000
     0.0000   0.0000   0.0000   0.0000   0.0000   0.0000   0.0000   0.0000
     0.0000   0.0000   0.0000   0.0000   0.0000   0.0000   0.0000   0.0000
     0.0000   0.0000   0.0000   0.0000   0.0000   0.0000   0.0000   0.0000
     0.0000   0.0000   0.0000   0.0000   0.0000   0.0000   0.0000   0.0000
     0.0000   0.0000   0.0000   0.0000   0.0000   0.0000   0.0000   0.0000

          k =-0.0258-0.1340 0.0000 (  7120 PWs)   bands (ev):

   -36.3090 -36.3085 -36.2941 -36.2939 -36.2869 -21.0389 -21.0345 -20.9789
   -20.9770 -20.9620 -11.9925  -6.2368  -1.3814  -0.8300  -0.5949   2.3134
     3.2138   3.6631   4.4192   4.9311   6.7687   7.4659   8.3031   8.4102
     8.8979   9.1028  10.5252  10.8426  11.3467  12.1491  12.5138  13.4701
    13.9468  14.2858  14.5119  14.7300  14.8780  15.2393  15.4019  15.9784
    16.0595  16.2308  17.0467  17.6412  17.9739  18.0516  18.0834  18.8057
    18.9469  19.0592  19.2362  19.5739  19.8476  19.9857  20.3752  21.6471
    21.8512  22.4288  22.6051  23.2680  23.3898  23.5061  23.6727  23.8633
    24.3551  24.7427  25.1871  25.2962  25.5690  26.3954  26.7095  26.9166
    27.9976  28.2481  28.6954  28.8442  29.0092  29.7964  30.0144  30.3245

     occupation numbers 
     1.0000   1.0000   1.0000   1.0000   1.0000   1.0000   1.0000   1.0000
     1.0000   1.0000   1.0000   1.0000   1.0000   1.0000   1.0000   0.0000
     0.0000   0.0000   0.0000   0.0000   0.0000   0.0000   0.0000   0.0000
     0.0000   0.0000   0.0000   0.0000   0.0000   0.0000   0.0000   0.0000
     0.0000   0.0000   0.0000   0.0000   0.0000   0.0000   0.0000   0.0000
     0.0000   0.0000   0.0000   0.0000   0.0000   0.0000   0.0000   0.0000
     0.0000   0.0000   0.0000   0.0000   0.0000   0.0000   0.0000   0.0000
     0.0000   0.0000   0.0000   0.0000   0.0000   0.0000   0.0000   0.0000
     0.0000   0.0000   0.0000   0.0000   0.0000   0.0000   0.0000   0.0000
     0.0000   0.0000   0.0000   0.0000   0.0000   0.0000   0.0000   0.0000

          k =-0.0258-0.1042 0.0000 (  7117 PWs)   bands (ev):

   -36.3090 -36.3087 -36.2940 -36.2939 -36.2870 -21.0384 -21.0357 -20.9781
   -20.9769 -20.9627 -12.0393  -6.2513  -1.1290  -0.8128  -0.5075   2.2679
     3.2236   3.6006   4.3572   4.8524   6.8622   7.5117   8.3196   8.4100
     8.6658   9.2089  10.4145  10.7989  11.1033  12.2447  12.5741  13.5072
    14.1942  14.3171  14.6802  14.8507  14.9828  15.3007  15.5468  15.7901
    16.2506  16.3267  16.6815  17.3599  17.6840  18.0878  18.4708  18.5421
    18.8629  19.0411  19.2043  19.3156  19.4839  20.1955  20.5021  21.3143
    21.5257  22.0976  22.2830  23.0338  23.1749  23.3980  23.5179  24.0933
    24.7906  25.1017  25.4458  25.7260  25.8937  26.6066  26.8821  26.9546
    27.7291  27.9997  28.4628  28.5965  29.2871  29.5109  29.5365  29.9824

     occupation numbers 
     1.0000   1.0000   1.0000   1.0000   1.0000   1.0000   1.0000   1.0000
     1.0000   1.0000   1.0000   1.0000   1.0000   1.0000   1.0000   0.0000
     0.0000   0.0000   0.0000   0.0000   0.0000   0.0000   0.0000   0.0000
     0.0000   0.0000   0.0000   0.0000   0.0000   0.0000   0.0000   0.0000
     0.0000   0.0000   0.0000   0.0000   0.0000   0.0000   0.0000   0.0000
     0.0000   0.0000   0.0000   0.0000   0.0000   0.0000   0.0000   0.0000
     0.0000   0.0000   0.0000   0.0000   0.0000   0.0000   0.0000   0.0000
     0.0000   0.0000   0.0000   0.0000   0.0000   0.0000   0.0000   0.0000
     0.0000   0.0000   0.0000   0.0000   0.0000   0.0000   0.0000   0.0000
     0.0000   0.0000   0.0000   0.0000   0.0000   0.0000   0.0000   0.0000

          k =-0.0258-0.0744 0.0000 (  7125 PWs)   bands (ev):

   -36.3090 -36.3089 -36.2940 -36.2939 -36.2871 -21.0381 -21.0366 -20.9774
   -20.9767 -20.9633 -12.0747  -6.2636  -0.9998  -0.6953  -0.4365   2.1373
     3.3006   3.5450   4.3088   4.7886   6.8884   7.5851   8.3509   8.4093
     8.5229   9.3584  10.2796  10.6353  10.8820  12.3842  12.7447  13.5843
    14.0129  14.4411  14.5589  15.1684  15.3078  15.4789  15.6738  15.8015
    16.0724  16.4768  16.7694  17.0790  17.3398  17.8418  18.1627  18.4406
    18.5872  18.9568  19.2820  19.5839  19.7055  20.4291  20.6808  21.0049
    21.2313  21.7479  21.9229  22.5310  22.7216  23.3276  23.4334  24.7044
    25.2406  25.4980  25.6965  25.9622  26.4247  26.7738  26.9675  27.1867
    27.4904  27.7649  28.0868  28.2368  29.0207  29.1218  29.6540  29.8261

     occupation numbers 
     1.0000   1.0000   1.0000   1.0000   1.0000   1.0000   1.0000   1.0000
     1.0000   1.0000   1.0000   1.0000   1.0000   1.0000   1.0000   0.0000
     0.0000   0.0000   0.0000   0.0000   0.0000   0.0000   0.0000   0.0000
     0.0000   0.0000   0.0000   0.0000   0.0000   0.0000   0.0000   0.0000
     0.0000   0.0000   0.0000   0.0000   0.0000   0.0000   0.0000   0.0000
     0.0000   0.0000   0.0000   0.0000   0.0000   0.0000   0.0000   0.0000
     0.0000   0.0000   0.0000   0.0000   0.0000   0.0000   0.0000   0.0000
     0.0000   0.0000   0.0000   0.0000   0.0000   0.0000   0.0000   0.0000
     0.0000   0.0000   0.0000   0.0000   0.0000   0.0000   0.0000   0.0000
     0.0000   0.0000   0.0000   0.0000   0.0000   0.0000   0.0000   0.0000

          k =-0.0258-0.0447 0.0000 (  7123 PWs)   bands (ev):

   -36.3090 -36.3089 -36.2940 -36.2939 -36.2872 -21.0378 -21.0372 -20.9770
   -20.9767 -20.9636 -12.0985  -6.2725  -0.9747  -0.5224  -0.3863   1.9940
     3.3875   3.5034   4.2745   4.7444   6.8638   7.6587   8.3680   8.4271
     8.4647   9.5273  10.2065  10.4092  10.6599  12.5882  12.9457  13.5169
    13.9906  14.3589  14.4772  15.3030  15.4814  15.6676  15.7691  16.0208
    16.1983  16.6414  16.9004  16.9627  17.0603  17.4944  17.7377  17.9879
    18.0629  19.3761  19.6473  19.8645  19.9988  20.5689  20.7482  20.8660
    21.0597  21.3850  21.5337  22.0669  22.3131  23.2945  23.3975  25.1953
    25.6396  25.8381  25.9655  26.1764  26.7864  26.8752  27.1767  27.2543
    27.5315  27.6137  27.7685  27.8754  28.6041  28.7676  29.3047  29.4192

     occupation numbers 
     1.0000   1.0000   1.0000   1.0000   1.0000   1.0000   1.0000   1.0000
     1.0000   1.0000   1.0000   1.0000   1.0000   1.0000   1.0000   0.0000
     0.0000   0.0000   0.0000   0.0000   0.0000   0.0000   0.0000   0.0000
     0.0000   0.0000   0.0000   0.0000   0.0000   0.0000   0.0000   0.0000
     0.0000   0.0000   0.0000   0.0000   0.0000   0.0000   0.0000   0.0000
     0.0000   0.0000   0.0000   0.0000   0.0000   0.0000   0.0000   0.0000
     0.0000   0.0000   0.0000   0.0000   0.0000   0.0000   0.0000   0.0000
     0.0000   0.0000   0.0000   0.0000   0.0000   0.0000   0.0000   0.0000
     0.0000   0.0000   0.0000   0.0000   0.0000   0.0000   0.0000   0.0000
     0.0000   0.0000   0.0000   0.0000   0.0000   0.0000   0.0000   0.0000

          k =-0.0258-0.0149 0.0000 (  7121 PWs)   bands (ev):

   -36.3090 -36.3090 -36.2939 -36.2939 -36.2872 -21.0377 -21.0375 -20.9767
   -20.9766 -20.9638 -12.1104  -6.2772  -0.9718  -0.4108  -0.3607   1.9019
     3.4413   3.4814   4.2564   4.7217   6.8360   7.6988   8.3723   8.4485
     8.4545   9.6666  10.1982  10.2538  10.4710  12.7883  13.0766  13.3578
    14.0796  14.2224  14.4782  15.2310  15.3705  15.8676  15.9824  16.3073
    16.6125  16.6535  16.7888  16.9444  17.1677  17.2455  17.2504  17.6266
    17.7390  19.6871  19.9299  20.0447  20.2635  20.4471  20.7731  20.9793
    21.0035  21.1327  21.1992  21.7389  22.0504  23.2795  23.3806  25.4669
    25.9138  26.0489  26.1598  26.3211  26.8780  27.0067  27.2090  27.3749
    27.4383  27.4525  27.7541  27.8802  28.3203  28.5422  28.9555  29.0459

     occupation numbers 
     1.0000   1.0000   1.0000   1.0000   1.0000   1.0000   1.0000   1.0000
     1.0000   1.0000   1.0000   1.0000   1.0000   1.0000   1.0000   0.0000
     0.0000   0.0000   0.0000   0.0000   0.0000   0.0000   0.0000   0.0000
     0.0000   0.0000   0.0000   0.0000   0.0000   0.0000   0.0000   0.0000
     0.0000   0.0000   0.0000   0.0000   0.0000   0.0000   0.0000   0.0000
     0.0000   0.0000   0.0000   0.0000   0.0000   0.0000   0.0000   0.0000
     0.0000   0.0000   0.0000   0.0000   0.0000   0.0000   0.0000   0.0000
     0.0000   0.0000   0.0000   0.0000   0.0000   0.0000   0.0000   0.0000
     0.0000   0.0000   0.0000   0.0000   0.0000   0.0000   0.0000   0.0000
     0.0000   0.0000   0.0000   0.0000   0.0000   0.0000   0.0000   0.0000

     the Fermi energy is     0.4775 ev

!    total energy              =    -932.29049571 Ry
     Harris-Foulkes estimate   =    -932.29049571 Ry
     estimated scf accuracy    <          1.3E-09 Ry

     total all-electron energy =    -25922.033918 Ry

     The total energy is the sum of the following terms:

     one-electron contribution =    -627.41464650 Ry
     hartree contribution      =     318.51751388 Ry
     xc contribution           =     -72.25977887 Ry
     ewald contribution        =      29.89390689 Ry
     one-center paw contrib.   =    -581.02749110 Ry
      -> PAW hartree energy AE =     113.88984956 Ry
      -> PAW hartree energy PS =    -104.22723594 Ry
      -> PAW xc energy AE      =    -318.52813981 Ry
      -> PAW xc energy PS      =      26.50699390 Ry
      -> total E_H with PAW    =     328.18012750 Ry
      -> total E_XC with PAW   =    -364.28092479 Ry
     smearing contrib. (-TS)   =      -0.00000000 Ry

     convergence has been achieved in   8 iterations

     negative rho (up, down):  6.328E-05 0.000E+00

     Forces acting on atoms (cartesian axes, Ry/au):

     atom    1 type  1   force =    -0.00000438    0.00000185    0.00045518
     atom    2 type  2   force =     0.00000438   -0.00000185   -0.00045518
     The non-local contrib.  to forces
     atom    1 type  1   force =     0.00000183    0.00000019   -0.54798786
     atom    2 type  2   force =     0.00001338   -0.00000693    0.33708104
     The ionic contribution  to forces
     atom    1 type  1   force =    -0.00000002    0.00000001   33.97115893
     atom    2 type  2   force =     0.00000002   -0.00000001  -33.97115893
     The local contribution  to forces
     atom    1 type  1   force =    -0.00000183    0.00000002  -33.43524476
     atom    2 type  2   force =     0.00000173    0.00000111   33.63448465
     The core correction contribution to forces
     atom    1 type  1   force =    -0.00000006    0.00000000    0.01251098
     atom    2 type  2   force =    -0.00000011    0.00000002   -0.00079199
     The Hubbard contrib.    to forces
     atom    1 type  1   force =     0.00000000    0.00000000    0.00000000
     atom    2 type  2   force =     0.00000000    0.00000000    0.00000000
     The SCF correction term to forces
     atom    1 type  1   force =     0.00000151   -0.00000060   -0.00002259
     atom    2 type  2   force =    -0.00000483    0.00000173   -0.00011042

     Total force =     0.000644     Total SCF correction =     0.000113
     SCF correction compared to forces is large: reduce conv_thr to get better values


     Computing stress (Cartesian axis) and pressure


     negative rho (up, down):  6.328E-05 0.000E+00
          total   stress  (Ry/bohr**3)                   (kbar)     P=   -0.23
  -0.00000134   0.00000000   0.00000000         -0.20      0.00      0.00
   0.00000000  -0.00000135   0.00000000          0.00     -0.20      0.00
   0.00000000   0.00000000  -0.00000200          0.00      0.00     -0.29

     kinetic stress (kbar)   3399.52     -0.00     -0.00
                               -0.00   3399.52     -0.00
                               -0.00     -0.00   3420.74

     local   stress (kbar) -54956.93      0.00     -0.00
                                0.00 -54956.93     -0.00
                               -0.00     -0.00  58517.55

     nonloc. stress (kbar)   1232.02      0.00      0.00
                                0.00   1232.02      0.00
                                0.00      0.00   1247.13

     hartree stress (kbar)  31276.34     -0.00      0.00
                               -0.00  31276.34      0.00
                                0.00      0.00 -23209.43

     exc-cor stress (kbar)   2217.59      0.00      0.00
                                0.00   2217.59      0.00
                                0.00      0.00   2217.59

     corecor stress (kbar)  -4074.47     -0.00     -0.00
                               -0.00  -4074.47     -0.00
                               -0.00     -0.00  -4074.93

     ewald   stress (kbar)  20905.72      0.00     -0.00
                                0.00  20905.72      0.00
                               -0.00      0.00 -38118.95

     hubbard stress (kbar)      0.00      0.00      0.00
                                0.00      0.00      0.00
                                0.00      0.00      0.00

     london  stress (kbar)      0.00      0.00      0.00
                                0.00      0.00      0.00
                                0.00      0.00      0.00

     DFT-D3  stress (kbar)      0.00      0.00      0.00
                                0.00      0.00      0.00
                                0.00      0.00      0.00

     XDM     stress (kbar)      0.00      0.00      0.00
                                0.00      0.00      0.00
                                0.00      0.00      0.00

     dft-nl  stress (kbar)      0.00      0.00      0.00
                                0.00      0.00      0.00
                                0.00      0.00      0.00

     TS-vdW  stress (kbar)      0.00      0.00      0.00
                                0.00      0.00      0.00
                                0.00      0.00      0.00



     Writing output data file snte.save/
 
     init_run     :    246.08s CPU    252.53s WALL (       1 calls)
     electrons    :   6821.73s CPU   6916.48s WALL (       1 calls)
     forces       :     15.52s CPU     15.70s WALL (       1 calls)
     stress       :     86.62s CPU     87.14s WALL (       1 calls)

     Called by init_run:
     wfcinit      :    242.30s CPU    248.46s WALL (       1 calls)
     wfcinit:atom :      1.53s CPU      1.54s WALL (    1600 calls)
     wfcinit:wfcr :    223.72s CPU    229.72s WALL (    1600 calls)
     potinit      :      0.94s CPU      0.94s WALL (       1 calls)
     hinit0       :      2.33s CPU      2.42s WALL (       1 calls)

     Called by electrons:
     c_bands      :   6060.04s CPU   6140.51s WALL (       9 calls)
     sum_band     :    758.80s CPU    771.71s WALL (       9 calls)
     v_of_rho     :      0.11s CPU      0.15s WALL (       9 calls)
     v_h          :      0.05s CPU      0.09s WALL (       9 calls)
     v_xc         :      0.07s CPU      0.07s WALL (      11 calls)
     newd         :      2.68s CPU      4.11s WALL (       9 calls)
     PAW_pot      :      0.38s CPU      0.38s WALL (       9 calls)
     mix_rho      :      0.09s CPU      0.12s WALL (       9 calls)

     Called by c_bands:
     init_us_2    :     35.50s CPU     35.83s WALL (   33600 calls)
     cegterg      :   5920.39s CPU   5999.68s WALL (   14400 calls)

     Called by sum_band:
     sum_band:bec :      0.77s CPU      0.78s WALL (   14400 calls)
     addusdens    :      2.68s CPU      4.09s WALL (       9 calls)

     Called by *egterg:
     h_psi        :   3965.94s CPU   4034.08s WALL (   65024 calls)
     s_psi        :     83.73s CPU     84.47s WALL (   65024 calls)
     g_psi        :     20.20s CPU     20.41s WALL (   49024 calls)
     cdiaghg      :    987.74s CPU    993.96s WALL (   61824 calls)
     cegterg:over :    408.54s CPU    414.63s WALL (   49024 calls)
     cegterg:upda :    306.60s CPU    308.67s WALL (   49024 calls)
     cegterg:last :    177.03s CPU    177.74s WALL (   16000 calls)

     Called by h_psi:
     h_psi:pot    :   3944.20s CPU   4010.80s WALL (   65024 calls)
     h_psi:calbec :     77.45s CPU     78.55s WALL (   65024 calls)
     vloc_psi     :   3778.26s CPU   3842.81s WALL (   65024 calls)
     add_vuspsi   :     87.74s CPU     88.89s WALL (   65024 calls)

     General routines
     calbec       :    113.30s CPU    114.92s WALL (   87424 calls)
     fft          :      0.52s CPU      0.58s WALL (      61 calls)
     ffts         :      0.02s CPU      0.02s WALL (      18 calls)
     fftw         :   3956.10s CPU   4022.73s WALL ( 7093018 calls)
     interpolate  :      0.05s CPU      0.06s WALL (       9 calls)
 
     Parallel routines
     fft_scatt_xy :    625.68s CPU    635.95s WALL ( 7093097 calls)
     fft_scatt_yz :    979.04s CPU    998.40s WALL ( 7093097 calls)

     PAW routines
     PAW_pot      :      0.38s CPU      0.38s WALL (       9 calls)
 
     PWSCF        :      1h59m CPU      2h 1m WALL

 
   This run was terminated on:  10: 3: 1  16Oct2023            

=------------------------------------------------------------------------------=
   JOB DONE.
=------------------------------------------------------------------------------=
