ESCALE ; pCOHP file generated by LOBSTER. Energy is shifted such that the Fermi level lies at 0 eV.
        83          1       1001  -2.99121e+01   2.01379e+01   1.17907e-01 
Average
No.1:Sn1->Te2(3.0176927725868801)
No.1:Sn1[5s]->Te2[5s](3.0176927725868801)
No.1:Sn1[5s]->Te2[5p_y](3.0176927725868801)
No.1:Sn1[5s]->Te2[5p_z](3.0176927725868801)
No.1:Sn1[5s]->Te2[5p_x](3.0176927725868801)
No.1:Sn1[5s]->Te2[4d_xy](3.0176927725868801)
No.1:Sn1[5s]->Te2[4d_yz](3.0176927725868801)
No.1:Sn1[5s]->Te2[4d_z^2](3.0176927725868801)
No.1:Sn1[5s]->Te2[4d_xz](3.0176927725868801)
No.1:Sn1[5s]->Te2[4d_x^2-y^2](3.0176927725868801)
No.1:Sn1[5p_y]->Te2[5s](3.0176927725868801)
No.1:Sn1[5p_y]->Te2[5p_y](3.0176927725868801)
No.1:Sn1[5p_y]->Te2[5p_z](3.0176927725868801)
No.1:Sn1[5p_y]->Te2[5p_x](3.0176927725868801)
No.1:Sn1[5p_y]->Te2[4d_xy](3.0176927725868801)
No.1:Sn1[5p_y]->Te2[4d_yz](3.0176927725868801)
No.1:Sn1[5p_y]->Te2[4d_z^2](3.0176927725868801)
No.1:Sn1[5p_y]->Te2[4d_xz](3.0176927725868801)
No.1:Sn1[5p_y]->Te2[4d_x^2-y^2](3.0176927725868801)
No.1:Sn1[5p_z]->Te2[5s](3.0176927725868801)
No.1:Sn1[5p_z]->Te2[5p_y](3.0176927725868801)
No.1:Sn1[5p_z]->Te2[5p_z](3.0176927725868801)
No.1:Sn1[5p_z]->Te2[5p_x](3.0176927725868801)
No.1:Sn1[5p_z]->Te2[4d_xy](3.0176927725868801)
No.1:Sn1[5p_z]->Te2[4d_yz](3.0176927725868801)
No.1:Sn1[5p_z]->Te2[4d_z^2](3.0176927725868801)
No.1:Sn1[5p_z]->Te2[4d_xz](3.0176927725868801)
No.1:Sn1[5p_z]->Te2[4d_x^2-y^2](3.0176927725868801)
No.1:Sn1[5p_x]->Te2[5s](3.0176927725868801)
No.1:Sn1[5p_x]->Te2[5p_y](3.0176927725868801)
No.1:Sn1[5p_x]->Te2[5p_z](3.0176927725868801)
No.1:Sn1[5p_x]->Te2[5p_x](3.0176927725868801)
No.1:Sn1[5p_x]->Te2[4d_xy](3.0176927725868801)
No.1:Sn1[5p_x]->Te2[4d_yz](3.0176927725868801)
No.1:Sn1[5p_x]->Te2[4d_z^2](3.0176927725868801)
No.1:Sn1[5p_x]->Te2[4d_xz](3.0176927725868801)
No.1:Sn1[5p_x]->Te2[4d_x^2-y^2](3.0176927725868801)
No.1:Sn1[4d_xy]->Te2[5s](3.0176927725868801)
No.1:Sn1[4d_xy]->Te2[5p_y](3.0176927725868801)
No.1:Sn1[4d_xy]->Te2[5p_z](3.0176927725868801)
No.1:Sn1[4d_xy]->Te2[5p_x](3.0176927725868801)
No.1:Sn1[4d_xy]->Te2[4d_xy](3.0176927725868801)
No.1:Sn1[4d_xy]->Te2[4d_yz](3.0176927725868801)
No.1:Sn1[4d_xy]->Te2[4d_z^2](3.0176927725868801)
No.1:Sn1[4d_xy]->Te2[4d_xz](3.0176927725868801)
No.1:Sn1[4d_xy]->Te2[4d_x^2-y^2](3.0176927725868801)
No.1:Sn1[4d_yz]->Te2[5s](3.0176927725868801)
No.1:Sn1[4d_yz]->Te2[5p_y](3.0176927725868801)
No.1:Sn1[4d_yz]->Te2[5p_z](3.0176927725868801)
No.1:Sn1[4d_yz]->Te2[5p_x](3.0176927725868801)
No.1:Sn1[4d_yz]->Te2[4d_xy](3.0176927725868801)
No.1:Sn1[4d_yz]->Te2[4d_yz](3.0176927725868801)
No.1:Sn1[4d_yz]->Te2[4d_z^2](3.0176927725868801)
No.1:Sn1[4d_yz]->Te2[4d_xz](3.0176927725868801)
No.1:Sn1[4d_yz]->Te2[4d_x^2-y^2](3.0176927725868801)
No.1:Sn1[4d_z^2]->Te2[5s](3.0176927725868801)
No.1:Sn1[4d_z^2]->Te2[5p_y](3.0176927725868801)
No.1:Sn1[4d_z^2]->Te2[5p_z](3.0176927725868801)
No.1:Sn1[4d_z^2]->Te2[5p_x](3.0176927725868801)
No.1:Sn1[4d_z^2]->Te2[4d_xy](3.0176927725868801)
No.1:Sn1[4d_z^2]->Te2[4d_yz](3.0176927725868801)
No.1:Sn1[4d_z^2]->Te2[4d_z^2](3.0176927725868801)
No.1:Sn1[4d_z^2]->Te2[4d_xz](3.0176927725868801)
No.1:Sn1[4d_z^2]->Te2[4d_x^2-y^2](3.0176927725868801)
No.1:Sn1[4d_xz]->Te2[5s](3.0176927725868801)
No.1:Sn1[4d_xz]->Te2[5p_y](3.0176927725868801)
No.1:Sn1[4d_xz]->Te2[5p_z](3.0176927725868801)
No.1:Sn1[4d_xz]->Te2[5p_x](3.0176927725868801)
No.1:Sn1[4d_xz]->Te2[4d_xy](3.0176927725868801)
No.1:Sn1[4d_xz]->Te2[4d_yz](3.0176927725868801)
No.1:Sn1[4d_xz]->Te2[4d_z^2](3.0176927725868801)
No.1:Sn1[4d_xz]->Te2[4d_xz](3.0176927725868801)
No.1:Sn1[4d_xz]->Te2[4d_x^2-y^2](3.0176927725868801)
No.1:Sn1[4d_x^2-y^2]->Te2[5s](3.0176927725868801)
No.1:Sn1[4d_x^2-y^2]->Te2[5p_y](3.0176927725868801)
No.1:Sn1[4d_x^2-y^2]->Te2[5p_z](3.0176927725868801)
No.1:Sn1[4d_x^2-y^2]->Te2[5p_x](3.0176927725868801)
No.1:Sn1[4d_x^2-y^2]->Te2[4d_xy](3.0176927725868801)
No.1:Sn1[4d_x^2-y^2]->Te2[4d_yz](3.0176927725868801)
No.1:Sn1[4d_x^2-y^2]->Te2[4d_z^2](3.0176927725868801)
No.1:Sn1[4d_x^2-y^2]->Te2[4d_xz](3.0176927725868801)
No.1:Sn1[4d_x^2-y^2]->Te2[4d_x^2-y^2](3.0176927725868801)
-30.03003   0.00000  -0.00072   0.00000  -0.02970   0.00000  -0.00000   0.00000  -0.00001   0.00000  -0.00002   0.00000  -0.00001   0.00000  -0.00272   0.00000  -0.00123   0.00000  -0.00013   0.00000  -0.00123   0.00000  -0.00000   0.00000   0.00000   0.00000  -0.00002   0.00000   0.00001   0.00000  -0.00000   0.00000  -0.00262   0.00000  -0.00155   0.00000  -0.00001   0.00000  -0.00368   0.00000  -0.00100   0.00000  -0.00001   0.00000  -0.00002   0.00000   0.00000   0.00000  -0.00002   0.00000  -0.00378   0.00000  -0.00013   0.00000  -0.00198   0.00000  -0.00013   0.00000  -0.00000   0.00000   0.00000   0.00000  -0.00000   0.00000   0.00001   0.00000  -0.00002   0.00000  -0.00262   0.00000  -0.00368   0.00000  -0.00001   0.00000  -0.00155   0.00000  -0.00100   0.00000  -0.00000   0.00000  -0.00000   0.00000   0.00000   0.00000  -0.00000   0.00000  -0.00008   0.00000  -0.00007   0.00000  -0.00000   0.00000  -0.00007   0.00000  -0.00000   0.00000  -0.00000   0.00000  -0.00000   0.00000   0.00000   0.00000  -0.00000   0.00000  -0.00007   0.00000  -0.00002   0.00000  -0.00001   0.00000  -0.00003   0.00000  -0.00000   0.00000   0.00000   0.00000  -0.00000   0.00000  -0.00000   0.00000  -0.00000   0.00000  -0.00000   0.00000  -0.00001   0.00000  -0.00001   0.00000  -0.00001   0.00000  -0.00000   0.00000  -0.00000   0.00000  -0.00000   0.00000   0.00000   0.00000  -0.00000   0.00000  -0.00007   0.00000  -0.00003   0.00000  -0.00001   0.00000  -0.00002   0.00000  -0.00000   0.00000  -0.00000   0.00000  -0.00000   0.00000  -0.00000   0.00000  -0.00000   0.00000  -0.00000   0.00000  -0.00000   0.00000  -0.00000   0.00000  -0.00000   0.00000  -0.00002
-29.97998   0.00000  -0.00072   0.00000  -0.02970   0.00000  -0.00000   0.00000  -0.00001   0.00000  -0.00002   0.00000  -0.00001   0.00000  -0.00272   0.00000  -0.00123   0.00000  -0.00013   0.00000  -0.00123   0.00000  -0.00000   0.00000   0.00000   0.00000  -0.00002   0.00000   0.00001   0.00000  -0.00000   0.00000  -0.00262   0.00000  -0.00155   0.00000  -0.00001   0.00000  -0.00368   0.00000  -0.00100   0.00000  -0.00001   0.00000  -0.00002   0.00000   0.00000   0.00000  -0.00002   0.00000  -0.00378   0.00000  -0.00013   0.00000  -0.00198   0.00000  -0.00013   0.00000  -0.00000   0.00000   0.00000   0.00000  -0.00000   0.00000   0.00001   0.00000  -0.00002   0.00000  -0.00262   0.00000  -0.00368   0.00000  -0.00001   0.00000  -0.00155   0.00000  -0.00100   0.00000  -0.00000   0.00000  -0.00000   0.00000   0.00000   0.00000  -0.00000   0.00000  -0.00008   0.00000  -0.00007   0.00000  -0.00000   0.00000  -0.00007   0.00000  -0.00000   0.00000  -0.00000   0.00000  -0.00000   0.00000   0.00000   0.00000  -0.00000   0.00000  -0.00007   0.00000  -0.00002   0.00000  -0.00001   0.00000  -0.00003   0.00000  -0.00000   0.00000   0.00000   0.00000  -0.00000   0.00000  -0.00000   0.00000  -0.00000   0.00000  -0.00000   0.00000  -0.00001   0.00000  -0.00001   0.00000  -0.00001   0.00000  -0.00000   0.00000  -0.00000   0.00000  -0.00000   0.00000   0.00000   0.00000  -0.00000   0.00000  -0.00007   0.00000  -0.00003   0.00000  -0.00001   0.00000  -0.00002   0.00000  -0.00000   0.00000  -0.00000   0.00000  -0.00000   0.00000  -0.00000   0.00000  -0.00000   0.00000  -0.00000   0.00000  -0.00000   0.00000  -0.00000   0.00000  -0.00000   0.00000  -0.00002
-29.92993   0.00000  -0.00072   0.00000  -0.02970   0.00000  -0.00000   0.00000  -0.00001   0.00000  -0.00002   0.00000  -0.00001   0.00000  -0.00272   0.00000  -0.00123   0.00000  -0.00013   0.00000  -0.00123   0.00000  -0.00000   0.00000   0.00000   0.00000  -0.00002   0.00000   0.00001   0.00000  -0.00000   0.00000  -0.00262   0.00000  -0.00155   0.00000  -0.00001   0.00000  -0.00368   0.00000  -0.00100   0.00000  -0.00001   0.00000  -0.00002   0.00000   0.00000   0.00000  -0.00002   0.00000  -0.00378   0.00000  -0.00013   0.00000  -0.00198   0.00000  -0.00013   0.00000  -0.00000   0.00000   0.00000   0.00000  -0.00000   0.00000   0.00001   0.00000  -0.00002   0.00000  -0.00262   0.00000  -0.00368   0.00000  -0.00001   0.00000  -0.00155   0.00000  -0.00100   0.00000  -0.00000   0.00000  -0.00000   0.00000   0.00000   0.00000  -0.00000   0.00000  -0.00008   0.00000  -0.00007   0.00000  -0.00000   0.00000  -0.00007   0.00000  -0.00000   0.00000  -0.00000   0.00000  -0.00000   0.00000   0.00000   0.00000  -0.00000   0.00000  -0.00007   0.00000  -0.00002   0.00000  -0.00001   0.00000  -0.00003   0.00000  -0.00000   0.00000   0.00000   0.00000  -0.00000   0.00000  -0.00000   0.00000  -0.00000   0.00000  -0.00000   0.00000  -0.00001   0.00000  -0.00001   0.00000  -0.00001   0.00000  -0.00000   0.00000  -0.00000   0.00000  -0.00000   0.00000   0.00000   0.00000  -0.00000   0.00000  -0.00007   0.00000  -0.00003   0.00000  -0.00001   0.00000  -0.00002   0.00000  -0.00000   0.00000  -0.00000   0.00000  -0.00000   0.00000  -0.00000   0.00000  -0.00000   0.00000  -0.00000   0.00000  -0.00000   0.00000  -0.00000   0.00000  -0.00000   0.00000  -0.00002
-29.87988   0.00000  -0.00072   0.00000  -0.02970   0.00000  -0.00000   0.00000  -0.00001   0.00000  -0.00002   0.00000  -0.00001   0.00000  -0.00272   0.00000  -0.00123   0.00000  -0.00013   0.00000  -0.00123   0.00000  -0.00000   0.00000   0.00000   0.00000  -0.00002   0.00000   0.00001   0.00000  -0.00000   0.00000  -0.00262   0.00000  -0.00155   0.00000  -0.00001   0.00000  -0.00368   0.00000  -0.00100   0.00000  -0.00001   0.00000  -0.00002   0.00000   0.00000   0.00000  -0.00002   0.00000  -0.00378   0.00000  -0.00013   0.00000  -0.00198   0.00000  -0.00013   0.00000  -0.00000   0.00000   0.00000   0.00000  -0.00000   0.00000   0.00001   0.00000  -0.00002   0.00000  -0.00262   0.00000  -0.00368   0.00000  -0.00001   0.00000  -0.00155   0.00000  -0.00100   0.00000  -0.00000   0.00000  -0.00000   0.00000   0.00000   0.00000  -0.00000   0.00000  -0.00008   0.00000  -0.00007   0.00000  -0.00000   0.00000  -0.00007   0.00000  -0.00000   0.00000  -0.00000   0.00000  -0.00000   0.00000   0.00000   0.00000  -0.00000   0.00000  -0.00007   0.00000  -0.00002   0.00000  -0.00001   0.00000  -0.00003   0.00000  -0.00000   0.00000   0.00000   0.00000  -0.00000   0.00000  -0.00000   0.00000  -0.00000   0.00000  -0.00000   0.00000  -0.00001   0.00000  -0.00001   0.00000  -0.00001   0.00000  -0.00000   0.00000  -0.00000   0.00000  -0.00000   0.00000   0.00000   0.00000  -0.00000   0.00000  -0.00007   0.00000  -0.00003   0.00000  -0.00001   0.00000  -0.00002   0.00000  -0.00000   0.00000  -0.00000   0.00000  -0.00000   0.00000  -0.00000   0.00000  -0.00000   0.00000  -0.00000   0.00000  -0.00000   0.00000  -0.00000   0.00000  -0.00000   0.00000  -0.00002
-29.82983   0.00000  -0.00072   0.00000  -0.02970   0.00000  -0.00000   0.00000  -0.00001   0.00000  -0.00002   0.00000  -0.00001   0.00000  -0.00272   0.00000  -0.00123   0.00000  -0.00013   0.00000  -0.00123   0.00000  -0.00000   0.00000   0.00000   0.00000  -0.00002   0.00000   0.00001   0.00000  -0.00000   0.00000  -0.00262   0.00000  -0.00155   0.00000  -0.00001   0.00000  -0.00368   0.00000  -0.00100   0.00000  -0.00001   0.00000  -0.00002   0.00000   0.00000   0.00000  -0.00002   0.00000  -0.00378   0.00000  -0.00013   0.00000  -0.00198   0.00000  -0.00013   0.00000  -0.00000   0.00000   0.00000   0.00000  -0.00000   0.00000   0.00001   0.00000  -0.00002   0.00000  -0.00262   0.00000  -0.00368   0.00000  -0.00001   0.00000  -0.00155   0.00000  -0.00100   0.00000  -0.00000   0.00000  -0.00000   0.00000   0.00000   0.00000  -0.00000   0.00000  -0.00008   0.00000  -0.00007   0.00000  -0.00000   0.00000  -0.00007   0.00000  -0.00000   0.00000  -0.00000   0.00000  -0.00000   0.00000   0.00000   0.00000  -0.00000   0.00000  -0.00007   0.00000  -0.00002   0.00000  -0.00001   0.00000  -0.00003   0.00000  -0.00000   0.00000   0.00000   0.00000  -0.00000   0.00000  -0.00000   0.00000  -0.00000   0.00000  -0.00000   0.00000  -0.00001   0.00000  -0.00001   0.00000  -0.00001   0.00000  -0.00000   0.00000  -0.00000   0.00000  -0.00000   0.00000   0.00000   0.00000  -0.00000   0.00000  -0.00007   0.00000  -0.00003   0.00000  -0.00001   0.00000  -0.00002   0.00000  -0.00000   0.00000  -0.00000   0.00000  -0.00000   0.00000  -0.00000   0.00000  -0.00000   0.00000  -0.00000   0.00000  -0.00000   0.00000  -0.00000   0.00000  -0.00000   0.00000  -0.00002
-29.77978   0.00000  -0.00072   0.00000  -0.02970   0.00000  -0.00000   0.00000  -0.00001   0.00000  -0.00002   0.00000  -0.00001   0.00000  -0.00272   0.00000  -0.00123   0.00000  -0.00013   0.00000  -0.00123   0.00000  -0.00000   0.00000   0.00000   0.00000  -0.00002   0.00000   0.00001   0.00000  -0.00000   0.00000  -0.00262   0.00000  -0.00155   0.00000  -0.00001   0.00000  -0.00368   0.00000  -0.00100   0.00000  -0.00001   0.00000  -0.00002   0.00000   0.00000   0.00000  -0.00002   0.00000  -0.00378   0.00000  -0.00013   0.00000  -0.00198   0.00000  -0.00013   0.00000  -0.00000   0.00000   0.00000   0.00000  -0.00000   0.00000   0.00001   0.00000  -0.00002   0.00000  -0.00262   0.00000  -0.00368   0.00000  -0.00001   0.00000  -0.00155   0.00000  -0.00100   0.00000  -0.00000   0.00000  -0.00000   0.00000   0.00000   0.00000  -0.00000   0.00000  -0.00008   0.00000  -0.00007   0.00000  -0.00000   0.00000  -0.00007   0.00000  -0.00000   0.00000  -0.00000   0.00000  -0.00000   0.00000   0.00000   0.00000  -0.00000   0.00000  -0.00007   0.00000  -0.00002   0.00000  -0.00001   0.00000  -0.00003   0.00000  -0.00000   0.00000   0.00000   0.00000  -0.00000   0.00000  -0.00000   0.00000  -0.00000   0.00000  -0.00000   0.00000  -0.00001   0.00000  -0.00001   0.00000  -0.00001   0.00000  -0.00000   0.00000  -0.00000   0.00000  -0.00000   0.00000   0.00000   0.00000  -0.00000   0.00000  -0.00007   0.00000  -0.00003   0.00000  -0.00001   0.00000  -0.00002   0.00000  -0.00000   0.00000  -0.00000   0.00000  -0.00000   0.00000  -0.00000   0.00000  -0.00000   0.00000  -0.00000   0.00000  -0.00000   0.00000  -0.00000   0.00000  -0.00000   0.00000  -0.00002
-29.72973   0.00000  -0.00072   0.00000  -0.02970   0.00000  -0.00000   0.00000  -0.00001   0.00000  -0.00002   0.00000  -0.00001   0.00000  -0.00272   0.00000  -0.00123   0.00000  -0.00013   0.00000  -0.00123   0.00000  -0.00000   0.00000   0.00000   0.00000  -0.00002   0.00000   0.00001   0.00000  -0.00000   0.00000  -0.00262   0.00000  -0.00155   0.00000  -0.00001   0.00000  -0.00368   0.00000  -0.00100   0.00000  -0.00001   0.00000  -0.00002   0.00000   0.00000   0.00000  -0.00002   0.00000  -0.00378   0.00000  -0.00013   0.00000  -0.00198   0.00000  -0.00013   0.00000  -0.00000   0.00000   0.00000   0.00000  -0.00000   0.00000   0.00001   0.00000  -0.00002   0.00000  -0.00262   0.00000  -0.00368   0.00000  -0.00001   0.00000  -0.00155   0.00000  -0.00100   0.00000  -0.00000   0.00000  -0.00000   0.00000   0.00000   0.00000  -0.00000   0.00000  -0.00008   0.00000  -0.00007   0.00000  -0.00000   0.00000  -0.00007   0.00000  -0.00000   0.00000  -0.00000   0.00000  -0.00000   0.00000   0.00000   0.00000  -0.00000   0.00000  -0.00007   0.00000  -0.00002   0.00000  -0.00001   0.00000  -0.00003   0.00000  -0.00000   0.00000   0.00000   0.00000  -0.00000   0.00000  -0.00000   0.00000  -0.00000   0.00000  -0.00000   0.00000  -0.00001   0.00000  -0.00001   0.00000  -0.00001   0.00000  -0.00000   0.00000  -0.00000   0.00000  -0.00000   0.00000   0.00000   0.00000  -0.00000   0.00000  -0.00007   0.00000  -0.00003   0.00000  -0.00001   0.00000  -0.00002   0.00000  -0.00000   0.00000  -0.00000   0.00000  -0.00000   0.00000  -0.00000   0.00000  -0.00000   0.00000  -0.00000   0.00000  -0.00000   0.00000  -0.00000   0.00000  -0.00000   0.00000  -0.00002
-29.67968   0.00000  -0.00072   0.00000  -0.02970   0.00000  -0.00000   0.00000  -0.00001   0.00000  -0.00002   0.00000  -0.00001   0.00000  -0.00272   0.00000  -0.00123   0.00000  -0.00013   0.00000  -0.00123   0.00000  -0.00000   0.00000   0.00000   0.00000  -0.00002   0.00000   0.00001   0.00000  -0.00000   0.00000  -0.00262   0.00000  -0.00155   0.00000  -0.00001   0.00000  -0.00368   0.00000  -0.00100   0.00000  -0.00001   0.00000  -0.00002   0.00000   0.00000   0.00000  -0.00002   0.00000  -0.00378   0.00000  -0.00013   0.00000  -0.00198   0.00000  -0.00013   0.00000  -0.00000   0.00000   0.00000   0.00000  -0.00000   0.00000   0.00001   0.00000  -0.00002   0.00000  -0.00262   0.00000  -0.00368   0.00000  -0.00001   0.00000  -0.00155   0.00000  -0.00100   0.00000  -0.00000   0.00000  -0.00000   0.00000   0.00000   0.00000  -0.00000   0.00000  -0.00008   0.00000  -0.00007   0.00000  -0.00000   0.00000  -0.00007   0.00000  -0.00000   0.00000  -0.00000   0.00000  -0.00000   0.00000   0.00000   0.00000  -0.00000   0.00000  -0.00007   0.00000  -0.00002   0.00000  -0.00001   0.00000  -0.00003   0.00000  -0.00000   0.00000   0.00000   0.00000  -0.00000   0.00000  -0.00000   0.00000  -0.00000   0.00000  -0.00000   0.00000  -0.00001   0.00000  -0.00001   0.00000  -0.00001   0.00000  -0.00000   0.00000  -0.00000   0.00000  -0.00000   0.00000   0.00000   0.00000  -0.00000   0.00000  -0.00007   0.00000  -0.00003   0.00000  -0.00001   0.00000  -0.00002   0.00000  -0.00000   0.00000  -0.00000   0.00000  -0.00000   0.00000  -0.00000   0.00000  -0.00000   0.00000  -0.00000   0.00000  -0.00000   0.00000  -0.00000   0.00000  -0.00000   0.00000  -0.00002
-29.62963   0.00000  -0.00072   0.00000  -0.02970   0.00000  -0.00000   0.00000  -0.00001   0.00000  -0.00002   0.00000  -0.00001   0.00000  -0.00272   0.00000  -0.00123   0.00000  -0.00013   0.00000  -0.00123   0.00000  -0.00000   0.00000   0.00000   0.00000  -0.00002   0.00000   0.00001   0.00000  -0.00000   0.00000  -0.00262   0.00000  -0.00155   0.00000  -0.00001   0.00000  -0.00368   0.00000  -0.00100   0.00000  -0.00001   0.00000  -0.00002   0.00000   0.00000   0.00000  -0.00002   0.00000  -0.00378   0.00000  -0.00013   0.00000  -0.00198   0.00000  -0.00013   0.00000  -0.00000   0.00000   0.00000   0.00000  -0.00000   0.00000   0.00001   0.00000  -0.00002   0.00000  -0.00262   0.00000  -0.00368   0.00000  -0.00001   0.00000  -0.00155   0.00000  -0.00100   0.00000  -0.00000   0.00000  -0.00000   0.00000   0.00000   0.00000  -0.00000   0.00000  -0.00008   0.00000  -0.00007   0.00000  -0.00000   0.00000  -0.00007   0.00000  -0.00000   0.00000  -0.00000   0.00000  -0.00000   0.00000   0.00000   0.00000  -0.00000   0.00000  -0.00007   0.00000  -0.00002   0.00000  -0.00001   0.00000  -0.00003   0.00000  -0.00000   0.00000   0.00000   0.00000  -0.00000   0.00000  -0.00000   0.00000  -0.00000   0.00000  -0.00000   0.00000  -0.00001   0.00000  -0.00001   0.00000  -0.00001   0.00000  -0.00000   0.00000  -0.00000   0.00000  -0.00000   0.00000   0.00000   0.00000  -0.00000   0.00000  -0.00007   0.00000  -0.00003   0.00000  -0.00001   0.00000  -0.00002   0.00000  -0.00000   0.00000  -0.00000   0.00000  -0.00000   0.00000  -0.00000   0.00000  -0.00000   0.00000  -0.00000   0.00000  -0.00000   0.00000  -0.00000   0.00000  -0.00000   0.00000  -0.00002
-29.57958   0.00000  -0.00072   0.00000  -0.02970   0.00000  -0.00000   0.00000  -0.00001   0.00000  -0.00002   0.00000  -0.00001   0.00000  -0.00272   0.00000  -0.00123   0.00000  -0.00013   0.00000  -0.00123   0.00000  -0.00000   0.00000   0.00000   0.00000  -0.00002   0.00000   0.00001   0.00000  -0.00000   0.00000  -0.00262   0.00000  -0.00155   0.00000  -0.00001   0.00000  -0.00368   0.00000  -0.00100   0.00000  -0.00001   0.00000  -0.00002   0.00000   0.00000   0.00000  -0.00002   0.00000  -0.00378   0.00000  -0.00013   0.00000  -0.00198   0.00000  -0.00013   0.00000  -0.00000   0.00000   0.00000   0.00000  -0.00000   0.00000   0.00001   0.00000  -0.00002   0.00000  -0.00262   0.00000  -0.00368   0.00000  -0.00001   0.00000  -0.00155   0.00000  -0.00100   0.00000  -0.00000   0.00000  -0.00000   0.00000   0.00000   0.00000  -0.00000   0.00000  -0.00008   0.00000  -0.00007   0.00000  -0.00000   0.00000  -0.00007   0.00000  -0.00000   0.00000  -0.00000   0.00000  -0.00000   0.00000   0.00000   0.00000  -0.00000   0.00000  -0.00007   0.00000  -0.00002   0.00000  -0.00001   0.00000  -0.00003   0.00000  -0.00000   0.00000   0.00000   0.00000  -0.00000   0.00000  -0.00000   0.00000  -0.00000   0.00000  -0.00000   0.00000  -0.00001   0.00000  -0.00001   0.00000  -0.00001   0.00000  -0.00000   0.00000  -0.00000   0.00000  -0.00000   0.00000   0.00000   0.00000  -0.00000   0.00000  -0.00007   0.00000  -0.00003   0.00000  -0.00001   0.00000  -0.00002   0.00000  -0.00000   0.00000  -0.00000   0.00000  -0.00000   0.00000  -0.00000   0.00000  -0.00000   0.00000  -0.00000   0.00000  -0.00000   0.00000  -0.00000   0.00000  -0.00000   0.00000  -0.00002
-29.52953   0.00000  -0.00072   0.00000  -0.02970   0.00000  -0.00000   0.00000  -0.00001   0.00000  -0.00002   0.00000  -0.00001   0.00000  -0.00272   0.00000  -0.00123   0.00000  -0.00013   0.00000  -0.00123   0.00000  -0.00000   0.00000   0.00000   0.00000  -0.00002   0.00000   0.00001   0.00000  -0.00000   0.00000  -0.00262   0.00000  -0.00155   0.00000  -0.00001   0.00000  -0.00368   0.00000  -0.00100   0.00000  -0.00001   0.00000  -0.00002   0.00000   0.00000   0.00000  -0.00002   0.00000  -0.00378   0.00000  -0.00013   0.00000  -0.00198   0.00000  -0.00013   0.00000  -0.00000   0.00000   0.00000   0.00000  -0.00000   0.00000   0.00001   0.00000  -0.00002   0.00000  -0.00262   0.00000  -0.00368   0.00000  -0.00001   0.00000  -0.00155   0.00000  -0.00100   0.00000  -0.00000   0.00000  -0.00000   0.00000   0.00000   0.00000  -0.00000   0.00000  -0.00008   0.00000  -0.00007   0.00000  -0.00000   0.00000  -0.00007   0.00000  -0.00000   0.00000  -0.00000   0.00000  -0.00000   0.00000   0.00000   0.00000  -0.00000   0.00000  -0.00007   0.00000  -0.00002   0.00000  -0.00001   0.00000  -0.00003   0.00000  -0.00000   0.00000   0.00000   0.00000  -0.00000   0.00000  -0.00000   0.00000  -0.00000   0.00000  -0.00000   0.00000  -0.00001   0.00000  -0.00001   0.00000  -0.00001   0.00000  -0.00000   0.00000  -0.00000   0.00000  -0.00000   0.00000   0.00000   0.00000  -0.00000   0.00000  -0.00007   0.00000  -0.00003   0.00000  -0.00001   0.00000  -0.00002   0.00000  -0.00000   0.00000  -0.00000   0.00000  -0.00000   0.00000  -0.00000   0.00000  -0.00000   0.00000  -0.00000   0.00000  -0.00000   0.00000  -0.00000   0.00000  -0.00000   0.00000  -0.00002
-29.47948   0.00000  -0.00072   0.00000  -0.02970   0.00000  -0.00000   0.00000  -0.00001   0.00000  -0.00002   0.00000  -0.00001   0.00000  -0.00272   0.00000  -0.00123   0.00000  -0.00013   0.00000  -0.00123   0.00000  -0.00000   0.00000   0.00000   0.00000  -0.00002   0.00000   0.00001   0.00000  -0.00000   0.00000  -0.00262   0.00000  -0.00155   0.00000  -0.00001   0.00000  -0.00368   0.00000  -0.00100   0.00000  -0.00001   0.00000  -0.00002   0.00000   0.00000   0.00000  -0.00002   0.00000  -0.00378   0.00000  -0.00013   0.00000  -0.00198   0.00000  -0.00013   0.00000  -0.00000   0.00000   0.00000   0.00000  -0.00000   0.00000   0.00001   0.00000  -0.00002   0.00000  -0.00262   0.00000  -0.00368   0.00000  -0.00001   0.00000  -0.00155   0.00000  -0.00100   0.00000  -0.00000   0.00000  -0.00000   0.00000   0.00000   0.00000  -0.00000   0.00000  -0.00008   0.00000  -0.00007   0.00000  -0.00000   0.00000  -0.00007   0.00000  -0.00000   0.00000  -0.00000   0.00000  -0.00000   0.00000   0.00000   0.00000  -0.00000   0.00000  -0.00007   0.00000  -0.00002   0.00000  -0.00001   0.00000  -0.00003   0.00000  -0.00000   0.00000   0.00000   0.00000  -0.00000   0.00000  -0.00000   0.00000  -0.00000   0.00000  -0.00000   0.00000  -0.00001   0.00000  -0.00001   0.00000  -0.00001   0.00000  -0.00000   0.00000  -0.00000   0.00000  -0.00000   0.00000   0.00000   0.00000  -0.00000   0.00000  -0.00007   0.00000  -0.00003   0.00000  -0.00001   0.00000  -0.00002   0.00000  -0.00000   0.00000  -0.00000   0.00000  -0.00000   0.00000  -0.00000   0.00000  -0.00000   0.00000  -0.00000   0.00000  -0.00000   0.00000  -0.00000   0.00000  -0.00000   0.00000  -0.00002
-29.42943   0.00000  -0.00072   0.00000  -0.02970   0.00000  -0.00000   0.00000  -0.00001   0.00000  -0.00002   0.00000  -0.00001   0.00000  -0.00272   0.00000  -0.00123   0.00000  -0.00013   0.00000  -0.00123   0.00000  -0.00000   0.00000   0.00000   0.00000  -0.00002   0.00000   0.00001   0.00000  -0.00000   0.00000  -0.00262   0.00000  -0.00155   0.00000  -0.00001   0.00000  -0.00368   0.00000  -0.00100   0.00000  -0.00001   0.00000  -0.00002   0.00000   0.00000   0.00000  -0.00002   0.00000  -0.00378   0.00000  -0.00013   0.00000  -0.00198   0.00000  -0.00013   0.00000  -0.00000   0.00000   0.00000   0.00000  -0.00000   0.00000   0.00001   0.00000  -0.00002   0.00000  -0.00262   0.00000  -0.00368   0.00000  -0.00001   0.00000  -0.00155   0.00000  -0.00100   0.00000  -0.00000   0.00000  -0.00000   0.00000   0.00000   0.00000  -0.00000   0.00000  -0.00008   0.00000  -0.00007   0.00000  -0.00000   0.00000  -0.00007   0.00000  -0.00000   0.00000  -0.00000   0.00000  -0.00000   0.00000   0.00000   0.00000  -0.00000   0.00000  -0.00007   0.00000  -0.00002   0.00000  -0.00001   0.00000  -0.00003   0.00000  -0.00000   0.00000   0.00000   0.00000  -0.00000   0.00000  -0.00000   0.00000  -0.00000   0.00000  -0.00000   0.00000  -0.00001   0.00000  -0.00001   0.00000  -0.00001   0.00000  -0.00000   0.00000  -0.00000   0.00000  -0.00000   0.00000   0.00000   0.00000  -0.00000   0.00000  -0.00007   0.00000  -0.00003   0.00000  -0.00001   0.00000  -0.00002   0.00000  -0.00000   0.00000  -0.00000   0.00000  -0.00000   0.00000  -0.00000   0.00000  -0.00000   0.00000  -0.00000   0.00000  -0.00000   0.00000  -0.00000   0.00000  -0.00000   0.00000  -0.00002
-29.37938   0.00000  -0.00072   0.00000  -0.02970   0.00000  -0.00000   0.00000  -0.00001   0.00000  -0.00002   0.00000  -0.00001   0.00000  -0.00272   0.00000  -0.00123   0.00000  -0.00013   0.00000  -0.00123   0.00000  -0.00000   0.00000   0.00000   0.00000  -0.00002   0.00000   0.00001   0.00000  -0.00000   0.00000  -0.00262   0.00000  -0.00155   0.00000  -0.00001   0.00000  -0.00368   0.00000  -0.00100   0.00000  -0.00001   0.00000  -0.00002   0.00000   0.00000   0.00000  -0.00002   0.00000  -0.00378   0.00000  -0.00013   0.00000  -0.00198   0.00000  -0.00013   0.00000  -0.00000   0.00000   0.00000   0.00000  -0.00000   0.00000   0.00001   0.00000  -0.00002   0.00000  -0.00262   0.00000  -0.00368   0.00000  -0.00001   0.00000  -0.00155   0.00000  -0.00100   0.00000  -0.00000   0.00000  -0.00000   0.00000   0.00000   0.00000  -0.00000   0.00000  -0.00008   0.00000  -0.00007   0.00000  -0.00000   0.00000  -0.00007   0.00000  -0.00000   0.00000  -0.00000   0.00000  -0.00000   0.00000   0.00000   0.00000  -0.00000   0.00000  -0.00007   0.00000  -0.00002   0.00000  -0.00001   0.00000  -0.00003   0.00000  -0.00000   0.00000   0.00000   0.00000  -0.00000   0.00000  -0.00000   0.00000  -0.00000   0.00000  -0.00000   0.00000  -0.00001   0.00000  -0.00001   0.00000  -0.00001   0.00000  -0.00000   0.00000  -0.00000   0.00000  -0.00000   0.00000   0.00000   0.00000  -0.00000   0.00000  -0.00007   0.00000  -0.00003   0.00000  -0.00001   0.00000  -0.00002   0.00000  -0.00000   0.00000  -0.00000   0.00000  -0.00000   0.00000  -0.00000   0.00000  -0.00000   0.00000  -0.00000   0.00000  -0.00000   0.00000  -0.00000   0.00000  -0.00000   0.00000  -0.00002
-29.32933   0.00000  -0.00072   0.00000  -0.02970   0.00000  -0.00000   0.00000  -0.00001   0.00000  -0.00002   0.00000  -0.00001   0.00000  -0.00272   0.00000  -0.00123   0.00000  -0.00013   0.00000  -0.00123   0.00000  -0.00000   0.00000   0.00000   0.00000  -0.00002   0.00000   0.00001   0.00000  -0.00000   0.00000  -0.00262   0.00000  -0.00155   0.00000  -0.00001   0.00000  -0.00368   0.00000  -0.00100   0.00000  -0.00001   0.00000  -0.00002   0.00000   0.00000   0.00000  -0.00002   0.00000  -0.00378   0.00000  -0.00013   0.00000  -0.00198   0.00000  -0.00013   0.00000  -0.00000   0.00000   0.00000   0.00000  -0.00000   0.00000   0.00001   0.00000  -0.00002   0.00000  -0.00262   0.00000  -0.00368   0.00000  -0.00001   0.00000  -0.00155   0.00000  -0.00100   0.00000  -0.00000   0.00000  -0.00000   0.00000   0.00000   0.00000  -0.00000   0.00000  -0.00008   0.00000  -0.00007   0.00000  -0.00000   0.00000  -0.00007   0.00000  -0.00000   0.00000  -0.00000   0.00000  -0.00000   0.00000   0.00000   0.00000  -0.00000   0.00000  -0.00007   0.00000  -0.00002   0.00000  -0.00001   0.00000  -0.00003   0.00000  -0.00000   0.00000   0.00000   0.00000  -0.00000   0.00000  -0.00000   0.00000  -0.00000   0.00000  -0.00000   0.00000  -0.00001   0.00000  -0.00001   0.00000  -0.00001   0.00000  -0.00000   0.00000  -0.00000   0.00000  -0.00000   0.00000   0.00000   0.00000  -0.00000   0.00000  -0.00007   0.00000  -0.00003   0.00000  -0.00001   0.00000  -0.00002   0.00000  -0.00000   0.00000  -0.00000   0.00000  -0.00000   0.00000  -0.00000   0.00000  -0.00000   0.00000  -0.00000   0.00000  -0.00000   0.00000  -0.00000   0.00000  -0.00000   0.00000  -0.00002