   2    2    1    1
  1.8519632e+02   3.7669036e-10   3.7668256e-10   1.3051858e-09   0.0000000e+00
            0.000000e+00
  CAR
 DOS and projected DOS file by LOBSTER. Energy is shifted such that the Fermi level lies at 0 eV. 
     20.13792742     -29.91212263  1001       0.11790740       1.00000000
-30.03003   0.00000  10.00000
-29.97998   0.00000  10.00000
-29.92993   0.00000  10.00000
-29.87988   0.00000  10.00000
-29.82983   0.00000  10.00000
-29.77978   0.00000  10.00000
-29.72973   0.00000  10.00000
-29.67968   0.00000  10.00000
-29.62963   0.00000  10.00000
-29.57958   0.00000  10.00000
-29.52953   0.00000  10.00000
-29.47948   0.00000  10.00000
-29.42943   0.00000  10.00000
-29.37938   0.00000  10.00000
-29.32933   0.00000  10.00000
-29.27928   0.00000  10.00000
-29.22923   0.00000  10.00000
-29.17918   0.00000  10.00000
-29.12913   0.00000  10.00000
-29.07908   0.00000  10.00000
-29.02903   0.00000  10.00000
-28.97898   0.00000  10.00000
-28.92893   0.00000  10.00000
-28.87888   0.00000  10.00000
-28.82883   0.00000  10.00000
-28.77878   0.00000  10.00000
-28.72873   0.00000  10.00000
-28.67868   0.00000  10.00000
-28.62863   0.00000  10.00000
-28.57858   0.00000  10.00000
-28.52853   0.00000  10.00000
-28.47848   0.00000  10.00000
-28.42843   0.00000  10.00000
-28.37838   0.00000  10.00000
-28.32833   0.00000  10.00000
-28.27828   0.00000  10.00000
-28.22823   0.00000  10.00000
-28.17818   0.00000  10.00000
-28.12813   0.00000  10.00000
-28.07808   0.00000  10.00000
-28.02803   0.00000  10.00000
-27.97798   0.00000  10.00000
-27.92793   0.00000  10.00000
-27.87788   0.00000  10.00000
-27.82783   0.00000  10.00000
-27.77778   0.00000  10.00000
-27.72773   0.00000  10.00000
-27.67768   0.00000  10.00000
-27.62763   0.00000  10.00000
-27.57758   0.00000  10.00000
-27.52753   0.00000  10.00000
-27.47748   0.00000  10.00000
-27.42743   0.00000  10.00000
-27.37738   0.00000  10.00000
-27.32733   0.00000  10.00000
-27.27728   0.00000  10.00000
-27.22723   0.00000  10.00000
-27.17718   0.00000  10.00000
-27.12713   0.00000  10.00000
-27.07708   0.00000  10.00000
-27.02703   0.00000  10.00000
-26.97698   0.00000  10.00000
-26.92693   0.00000  10.00000
-26.87688   0.00000  10.00000
-26.82683   0.00000  10.00000
-26.77678   0.00000  10.00000
-26.72673   0.00000  10.00000
-26.67668   0.00000  10.00000
-26.62663   0.00000  10.00000
-26.57658   0.00000  10.00000
-26.52653   0.00000  10.00000
-26.47648   0.00000  10.00000
-26.42643   0.00000  10.00000
-26.37638   0.00000  10.00000
-26.32633   0.00000  10.00000
-26.27628   0.00000  10.00000
-26.22623   0.00000  10.00000
-26.17618   0.00000  10.00000
-26.12613   0.00000  10.00000
-26.07608   0.00000  10.00000
-26.02603   0.00000  10.00000
-25.97598   0.00000  10.00000
-25.92593   0.00000  10.00000
-25.87588   0.00000  10.00000
-25.82583   0.00000  10.00000
-25.77578   0.00000  10.00000
-25.72573   0.00000  10.00000
-25.67568   0.00000  10.00000
-25.62563   0.00000  10.00000
-25.57558   0.00000  10.00000
-25.52553   0.00000  10.00000
-25.47548   0.00000  10.00000
-25.42543   0.00000  10.00000
-25.37538   0.00000  10.00000
-25.32533   0.00000  10.00000
-25.27528   0.00000  10.00000
-25.22523   0.00000  10.00000
-25.17518   0.00000  10.00000
-25.12513   0.00000  10.00000
-25.07508   0.00000  10.00000
-25.02503   0.00000  10.00000
-24.97497   0.00000  10.00000
-24.92492   0.00000  10.00000
-24.87487   0.00000  10.00000
-24.82482   0.00000  10.00000
-24.77477   0.00000  10.00000
-24.72472   0.00000  10.00000
-24.67467   0.00000  10.00000
-24.62462   0.00000  10.00000
-24.57457   0.00000  10.00000
-24.52452   0.00000  10.00000
-24.47447   0.00000  10.00000
-24.42442   0.00000  10.00000
-24.37437   0.00000  10.00000
-24.32432   0.00000  10.00000
-24.27427   0.00000  10.00000
-24.22422   0.00000  10.00000
-24.17417   0.00000  10.00000
-24.12412   0.00000  10.00000
-24.07407   0.00000  10.00000
-24.02402   0.00000  10.00000
-23.97397   0.00000  10.00000
-23.92392   0.00000  10.00000
-23.87387   0.00000  10.00000
-23.82382   0.00000  10.00000
-23.77377   0.00000  10.00000
-23.72372   0.00000  10.00000
-23.67367   0.00000  10.00000
-23.62362   0.00000  10.00000
-23.57357   0.00000  10.00000
-23.52352   0.00000  10.00000
-23.47347   0.00000  10.00000
-23.42342   0.00000  10.00000
-23.37337   0.00000  10.00000
-23.32332   0.00000  10.00000
-23.27327   0.00000  10.00000
-23.22322   0.00000  10.00000
-23.17317   0.00000  10.00000
-23.12312   0.00000  10.00000
-23.07307   0.00000  10.00000
-23.02302   0.00000  10.00000
-22.97297   0.00000  10.00000
-22.92292   0.00000  10.00000
-22.87287   0.00000  10.00000
-22.82282   0.00000  10.00000
-22.77277   0.00000  10.00000
-22.72272   0.00000  10.00000
-22.67267   0.00000  10.00000
-22.62262   0.00000  10.00000
-22.57257   0.00000  10.00000
-22.52252   0.00000  10.00000
-22.47247   0.00000  10.00000
-22.42242   0.00000  10.00000
-22.37237   0.00000  10.00000
-22.32232   0.00000  10.00000
-22.27227   0.00003  10.00000
-22.22222   0.00016  10.00001
-22.17217   0.00085  10.00005
-22.12212   0.00396  10.00025
-22.07207   0.01628  10.00107
-22.02202   0.05917  10.00403
-21.97197   0.19021  10.01355
-21.92192   0.54076  10.04061
-21.87187   1.35987  10.10867
-21.82182   3.02490  10.26007
-21.77177   5.95188  10.55796
-21.72172  10.35952  11.07646
-21.67167  15.95050  11.87478
-21.62162  21.72537  12.96214
-21.57157  26.17734  14.27231
-21.52152  27.90332  15.66888
-21.47147  26.31259  16.98582
-21.42142  21.95097  18.08447
-21.37137  16.20056  18.89531
-21.32132  10.57779  19.42473
-21.27127   6.11013  19.73054
-21.22122   3.12247  19.88682
-21.17117   1.41168  19.95747
-21.12112   0.56463  19.98573
-21.07107   0.19979  19.99573
-21.02102   0.06254  19.99886
-20.97097   0.01732  19.99973
-20.92092   0.00424  19.99994
-20.87087   0.00092  19.99999
-20.82082   0.00018  20.00000
-20.77077   0.00003  20.00000
-20.72072   0.00000  20.00000
-20.67067   0.00000  20.00000
-20.62062   0.00000  20.00000
-20.57057   0.00000  20.00000
-20.52052   0.00000  20.00000
-20.47047   0.00000  20.00000
-20.42042   0.00000  20.00000
-20.37037   0.00000  20.00000
-20.32032   0.00000  20.00000
-20.27027   0.00000  20.00000
-20.22022   0.00000  20.00000
-20.17017   0.00000  20.00000
-20.12012   0.00000  20.00000
-20.07007   0.00000  20.00000
-20.02002   0.00000  20.00000
-19.96997   0.00000  20.00000
-19.91992   0.00000  20.00000
-19.86987   0.00000  20.00000
-19.81982   0.00000  20.00000
-19.76977   0.00000  20.00000
-19.71972   0.00000  20.00000
-19.66967   0.00000  20.00000
-19.61962   0.00000  20.00000
-19.56957   0.00000  20.00000
-19.51952   0.00000  20.00000
-19.46947   0.00000  20.00000
-19.41942   0.00000  20.00000
-19.36937   0.00000  20.00000
-19.31932   0.00000  20.00000
-19.26927   0.00000  20.00000
-19.21922   0.00000  20.00000
-19.16917   0.00000  20.00000
-19.11912   0.00000  20.00000
-19.06907   0.00000  20.00000
-19.01902   0.00000  20.00000
-18.96897   0.00000  20.00000
-18.91892   0.00000  20.00000
-18.86887   0.00000  20.00000
-18.81882   0.00000  20.00000
-18.76877   0.00000  20.00000
-18.71872   0.00000  20.00000
-18.66867   0.00000  20.00000
-18.61862   0.00000  20.00000
-18.56857   0.00000  20.00000
-18.51852   0.00000  20.00000
-18.46847   0.00000  20.00000
-18.41842   0.00000  20.00000
-18.36837   0.00000  20.00000
-18.31832   0.00000  20.00000
-18.26827   0.00000  20.00000
-18.21822   0.00000  20.00000
-18.16817   0.00000  20.00000
-18.11812   0.00000  20.00000
-18.06807   0.00000  20.00000
-18.01802   0.00000  20.00000
-17.96797   0.00000  20.00000
-17.91792   0.00000  20.00000
-17.86787   0.00000  20.00000
-17.81782   0.00000  20.00000
-17.76777   0.00000  20.00000
-17.71772   0.00000  20.00000
-17.66767   0.00000  20.00000
-17.61762   0.00000  20.00000
-17.56757   0.00000  20.00000
-17.51752   0.00000  20.00000
-17.46747   0.00000  20.00000
-17.41742   0.00000  20.00000
-17.36737   0.00000  20.00000
-17.31732   0.00000  20.00000
-17.26727   0.00000  20.00000
-17.21722   0.00000  20.00000
-17.16717   0.00000  20.00000
-17.11712   0.00000  20.00000
-17.06707   0.00000  20.00000
-17.01702   0.00000  20.00000
-16.96697   0.00000  20.00000
-16.91692   0.00000  20.00000
-16.86687   0.00000  20.00000
-16.81682   0.00000  20.00000
-16.76677   0.00000  20.00000
-16.71672   0.00000  20.00000
-16.66667   0.00000  20.00000
-16.61662   0.00000  20.00000
-16.56657   0.00000  20.00000
-16.51652   0.00000  20.00000
-16.46647   0.00000  20.00000
-16.41642   0.00000  20.00000
-16.36637   0.00000  20.00000
-16.31632   0.00000  20.00000
-16.26627   0.00000  20.00000
-16.21622   0.00000  20.00000
-16.16617   0.00000  20.00000
-16.11612   0.00000  20.00000
-16.06607   0.00000  20.00000
-16.01602   0.00000  20.00000
-15.96597   0.00000  20.00000
-15.91592   0.00000  20.00000
-15.86587   0.00000  20.00000
-15.81582   0.00000  20.00000
-15.76577   0.00000  20.00000
-15.71572   0.00000  20.00000
-15.66567   0.00000  20.00000
-15.61562   0.00000  20.00000
-15.56557   0.00000  20.00000
-15.51552   0.00000  20.00000
-15.46547   0.00000  20.00000
-15.41542   0.00000  20.00000
-15.36537   0.00000  20.00000
-15.31532   0.00000  20.00000
-15.26527   0.00000  20.00000
-15.21522   0.00000  20.00000
-15.16517   0.00000  20.00000
-15.11512   0.00000  20.00000
-15.06507   0.00000  20.00000
-15.01502   0.00000  20.00000
-14.96496   0.00000  20.00000
-14.91491   0.00000  20.00000
-14.86486   0.00000  20.00000
-14.81481   0.00000  20.00000
-14.76476   0.00000  20.00000
-14.71471   0.00000  20.00000
-14.66466   0.00000  20.00000
-14.61461   0.00000  20.00000
-14.56456   0.00000  20.00000
-14.51451   0.00000  20.00000
-14.46446   0.00000  20.00000
-14.41441   0.00000  20.00000
-14.36436   0.00000  20.00000
-14.31431   0.00000  20.00000
-14.26426   0.00000  20.00000
-14.21421   0.00000  20.00000
-14.16416   0.00000  20.00000
-14.11411   0.00000  20.00000
-14.06406   0.00000  20.00000
-14.01401   0.00000  20.00000
-13.96396   0.00000  20.00000
-13.91391   0.00000  20.00000
-13.86386   0.00000  20.00000
-13.81381   0.00000  20.00000
-13.76376   0.00000  20.00000
-13.71371   0.00000  20.00000
-13.66366   0.00000  20.00000
-13.61361   0.00000  20.00000
-13.56356   0.00000  20.00000
-13.51351   0.00000  20.00000
-13.46346   0.00000  20.00000
-13.41341   0.00000  20.00000
-13.36336   0.00000  20.00000
-13.31331   0.00000  20.00000
-13.26326   0.00000  20.00000
-13.21321   0.00000  20.00000
-13.16316   0.00000  20.00000
-13.11311   0.00000  20.00000
-13.06306   0.00002  20.00000
-13.01301   0.00007  20.00000
-12.96296   0.00027  20.00002
-12.91291   0.00091  20.00006
-12.86286   0.00274  20.00020
-12.81281   0.00737  20.00057
-12.76276   0.01773  20.00146
-12.71271   0.03827  20.00337
-12.66266   0.07426  20.00709
-12.61261   0.13009  20.01360
-12.56256   0.20676  20.02395
-12.51251   0.30002  20.03896
-12.46246   0.40058  20.05901
-12.41241   0.49689  20.08388
-12.36236   0.57906  20.11286
-12.31231   0.64194  20.14499
-12.26226   0.68571  20.17931
-12.21221   0.71428  20.21506
-12.16216   0.73281  20.25174
-12.11211   0.74585  20.28907
-12.06206   0.75652  20.32693
-12.01201   0.76663  20.36530
-11.96196   0.77710  20.40420
-11.91191   0.78840  20.44366
-11.86186   0.80080  20.48374
-11.81181   0.81453  20.52450
-11.76176   0.82987  20.56604
-11.71171   0.84716  20.60844
-11.66166   0.86690  20.65183
-11.61161   0.88977  20.69636
-11.56156   0.91681  20.74225
-11.51151   0.94947  20.78977
-11.46146   0.98960  20.83930
-11.41141   1.03904  20.89130
-11.36136   1.09858  20.94629
-11.31131   1.16630  21.00466
-11.26126   1.23599  21.06652
-11.21121   1.29697  21.13143
-11.16116   1.33628  21.19832
-11.11111   1.34317  21.26554
-11.06106   1.31359  21.33129
-11.01101   1.25209  21.39395
-10.96096   1.16991  21.45251
-10.91091   1.08033  21.50658
-10.86086   0.99425  21.55634
-10.81081   0.91792  21.60228
-10.76076   0.85316  21.64498
-10.71071   0.79902  21.68497
-10.66066   0.75341  21.72268
-10.61061   0.71413  21.75842
-10.56056   0.67904  21.79241
-10.51051   0.64586  21.82473
-10.46046   0.61172  21.85535
-10.41041   0.57297  21.88403
-10.36036   0.52564  21.91034
-10.31031   0.46672  21.93370
-10.26026   0.39588  21.95351
-10.21021   0.31667  21.96936
-10.16016   0.23606  21.98117
-10.11011   0.16234  21.98930
-10.06006   0.10213  21.99441
-10.01001   0.05839  21.99733
 -9.95996   0.03017  21.99884
 -9.90991   0.01403  21.99955
 -9.85986   0.00586  21.99984
 -9.80981   0.00219  21.99995
 -9.75976   0.00073  21.99999
 -9.70971   0.00022  22.00000
 -9.65966   0.00006  22.00000
 -9.60961   0.00001  22.00000
 -9.55956   0.00000  22.00000
 -9.50951   0.00000  22.00000
 -9.45946   0.00000  22.00000
 -9.40941   0.00000  22.00000
 -9.35936   0.00000  22.00000
 -9.30931   0.00000  22.00000
 -9.25926   0.00000  22.00000
 -9.20921   0.00000  22.00000
 -9.15916   0.00000  22.00000
 -9.10911   0.00000  22.00000
 -9.05906   0.00000  22.00000
 -9.00901   0.00000  22.00000
 -8.95896   0.00000  22.00000
 -8.90891   0.00000  22.00000
 -8.85886   0.00000  22.00000
 -8.80881   0.00000  22.00000
 -8.75876   0.00000  22.00000
 -8.70871   0.00000  22.00000
 -8.65866   0.00001  22.00000
 -8.60861   0.00004  22.00000
 -8.55856   0.00015  22.00001
 -8.50851   0.00054  22.00004
 -8.45846   0.00170  22.00012
 -8.40841   0.00480  22.00036
 -8.35836   0.01207  22.00097
 -8.30831   0.02720  22.00233
 -8.25826   0.05508  22.00508
 -8.20821   0.10055  22.01012
 -8.15816   0.16627  22.01844
 -8.10811   0.25052  22.03098
 -8.05806   0.34645  22.04832
 -8.00801   0.44379  22.07053
 -7.95796   0.53224  22.09717
 -7.90791   0.60497  22.12745
 -7.85786   0.66018  22.16049
 -7.80781   0.70028  22.19554
 -7.75776   0.72983  22.23207
 -7.70771   0.75344  22.26978
 -7.65766   0.77462  22.30854
 -7.60761   0.79564  22.34837
 -7.55756   0.81780  22.38930
 -7.50751   0.84195  22.43144
 -7.45746   0.86874  22.47492
 -7.40741   0.89892  22.51991
 -7.35736   0.93349  22.56663
 -7.30731   0.97389  22.61537
 -7.25726   1.02217  22.66653
 -7.20721   1.08104  22.72064
 -7.15716   1.15349  22.77837
 -7.10711   1.24171  22.84052
 -7.05706   1.34520  22.90785
 -7.00701   1.45886  22.98086
 -6.95696   1.57250  23.05957
 -6.90691   1.67300  23.14330
 -6.85686   1.74881  23.23083
 -6.80681   1.79394  23.32061
 -6.75676   1.80805  23.41111
 -6.70671   1.79181  23.50079
 -6.65666   1.74101  23.58792
 -6.60661   1.64535  23.67027
 -6.55656   1.49475  23.74509
 -6.50651   1.28968  23.80964
 -6.45646   1.04750  23.86206
 -6.40641   0.79875  23.90204
 -6.35636   0.57546  23.93084
 -6.30631   0.39890  23.95081
 -6.25626   0.27426  23.96453
 -6.20621   0.19358  23.97422
 -6.15616   0.14310  23.98138
 -6.10611   0.10981  23.98688
 -6.05606   0.08485  23.99113
 -6.00601   0.06383  23.99432
 -5.95596   0.04552  23.99660
 -5.90591   0.03022  23.99811
 -5.85586   0.01845  23.99904
 -5.80581   0.01026  23.99955
 -5.75576   0.00517  23.99981
 -5.70571   0.00235  23.99993
 -5.65566   0.00096  23.99997
 -5.60561   0.00035  23.99999
 -5.55556   0.00011  24.00000
 -5.50551   0.00003  24.00000
 -5.45546   0.00001  24.00000
 -5.40541   0.00000  24.00000
 -5.35536   0.00000  24.00000
 -5.30531   0.00000  24.00000
 -5.25526   0.00000  24.00000
 -5.20521   0.00002  24.00000
 -5.15516   0.00008  24.00000
 -5.10511   0.00028  24.00002
 -5.05506   0.00089  24.00006
 -5.00501   0.00257  24.00019
 -4.95495   0.00663  24.00052
 -4.90490   0.01530  24.00129
 -4.85485   0.03170  24.00288
 -4.80480   0.05918  24.00584
 -4.75475   0.09995  24.01084
 -4.70470   0.15360  24.01853
 -4.65465   0.21626  24.02935
 -4.60460   0.28140  24.04344
 -4.55455   0.34189  24.06055
 -4.50450   0.39249  24.08019
 -4.45445   0.43122  24.10177
 -4.40440   0.45917  24.12476
 -4.35435   0.47919  24.14874
 -4.30430   0.49440  24.17348
 -4.25425   0.50727  24.19887
 -4.20420   0.51947  24.22487
 -4.15415   0.53216  24.25151
 -4.10410   0.54631  24.27885
 -4.05405   0.56327  24.30704
 -4.00400   0.58573  24.33636
 -3.95395   0.61913  24.36734
 -3.90390   0.67309  24.40103
 -3.85385   0.76146  24.43914
 -3.80380   0.89955  24.48417
 -3.75375   1.09782  24.53911
 -3.70370   1.35316  24.60684
 -3.65365   1.64239  24.68904
 -3.60360   1.92365  24.78532
 -3.55355   2.14814  24.89283
 -3.50350   2.27805  25.00685
 -3.45345   2.30090  25.12201
 -3.40340   2.23225  25.23373
 -3.35335   2.10588  25.33913
 -3.30330   1.95809  25.43714
 -3.25325   1.81457  25.52796
 -3.20320   1.68496  25.61229
 -3.15315   1.56523  25.69063
 -3.10310   1.44523  25.76296
 -3.05305   1.31735  25.82890
 -3.00300   1.18290  25.88810
 -2.95295   1.05310  25.94081
 -2.90290   0.94458  25.98808
 -2.85285   0.87172  26.03171
 -2.80280   0.84046  26.07378
 -2.75275   0.84712  26.11618
 -2.70270   0.88260  26.16035
 -2.65265   0.93849  26.20732
 -2.60260   1.01073  26.25791
 -2.55255   1.09864  26.31290
 -2.50250   1.20086  26.37300
 -2.45245   1.31182  26.43866
 -2.40240   1.42105  26.50978
 -2.35235   1.51569  26.58564
 -2.30230   1.58481  26.66496
 -2.25225   1.62385  26.74623
 -2.20220   1.63733  26.82818
 -2.15215   1.63774  26.91015
 -2.10210   1.64038  26.99225
 -2.05205   1.65681  27.07518
 -2.00200   1.69097  27.15981
 -1.95195   1.73984  27.24689
 -1.90190   1.79721  27.33684
 -1.85185   1.85680  27.42977
 -1.80180   1.91277  27.52550
 -1.75175   1.95888  27.62355
 -1.70170   1.98889  27.72309
 -1.65165   1.99883  27.82313
 -1.60160   1.98960  27.92271
 -1.55155   1.96706  28.02116
 -1.50150   1.93877  28.11820
 -1.45145   1.90948  28.21377
 -1.40140   1.87877  28.30780
 -1.35135   1.84232  28.40001
 -1.30130   1.79591  28.48989
 -1.25125   1.73958  28.57696
 -1.20120   1.67996  28.66104
 -1.15115   1.63034  28.74264
 -1.10110   1.60830  28.82314
 -1.05105   1.63112  28.90477
 -1.00100   1.70828  28.99027
 -0.95095   1.83231  29.08198
 -0.90090   1.97244  29.18070
 -0.85085   2.07769  29.28469
 -0.80080   2.09340  29.38947
 -0.75075   1.98553  29.48884
 -0.70070   1.75883  29.57687
 -0.65065   1.45624  29.64976
 -0.60060   1.13918  29.70677
 -0.55055   0.86136  29.74988
 -0.50050   0.65178  29.78250
 -0.45045   0.51318  29.80819
 -0.40040   0.43183  29.82980
 -0.35035   0.38973  29.84931
 -0.30030   0.37306  29.86798
 -0.25025   0.37528  29.88676
 -0.20020   0.39599  29.90658
 -0.15015   0.43730  29.92847
 -0.10010   0.49973  29.95348
 -0.05005   0.57955  29.98249
 -0.00000   0.66894  30.01597
  0.05005   0.75859  30.05394
  0.10010   0.84086  30.09602
  0.15015   0.91127  30.14163
  0.20020   0.96750  30.19005
  0.25025   1.00709  30.24046
  0.30030   1.02640  30.29183
  0.35035   1.02190  30.34298
  0.40040   0.99307  30.39268
  0.45045   0.94428  30.43994
  0.50050   0.88402  30.48418
  0.55055   0.82172  30.52531
  0.60060   0.76434  30.56357
  0.65065   0.71490  30.59935
  0.70070   0.67348  30.63306
  0.75075   0.63935  30.66506
  0.80080   0.61228  30.69570
  0.85085   0.59243  30.72535
  0.90090   0.57948  30.75435
  0.95095   0.57215  30.78299
  1.00100   0.56878  30.81146
  1.05105   0.56844  30.83991
  1.10110   0.57170  30.86852
  1.15115   0.58051  30.89758
  1.20120   0.59726  30.92747
  1.25125   0.62394  30.95870
  1.30130   0.66213  30.99184
  1.35135   0.71335  31.02754
  1.40140   0.77886  31.06652
  1.45145   0.85860  31.10950
  1.50150   0.95055  31.15707
  1.55155   1.05160  31.20970
  1.60160   1.15998  31.26776
  1.65165   1.27745  31.33170
  1.70170   1.40936  31.40223
  1.75175   1.56145  31.48039
  1.80180   1.73394  31.56717
  1.85185   1.91630  31.66308
  1.90190   2.08702  31.76754
  1.95195   2.22100  31.87870
  2.00200   2.30147  31.99389
  2.05205   2.32965  32.11048
  2.10210   2.32575  32.22689
  2.15215   2.32063  32.34304
  2.20220   2.34191  32.46025
  2.25225   2.40078  32.58041
  2.30230   2.48515  32.70479
  2.35235   2.56315  32.83308
  2.40240   2.59647  32.96303
  2.45245   2.55737  33.09103
  2.50250   2.43998  33.21315
  2.55255   2.26004  33.32626
  2.60260   2.04524  33.42863
  2.65265   1.82374  33.51990
  2.70270   1.61707  33.60084
  2.75275   1.43849  33.67283
  2.80280   1.29409  33.73760
  2.85285   1.18467  33.79690
  2.90290   1.10778  33.85234
  2.95295   1.05983  33.90539
  3.00300   1.03714  33.95729
  3.05305   1.03586  34.00914
  3.10310   1.05221  34.06180
  3.15315   1.08456  34.11609
  3.20320   1.13575  34.17293
  3.25325   1.21269  34.23362
  3.30330   1.32207  34.29979
  3.35335   1.46438  34.37309
  3.40340   1.63013  34.45467
  3.45345   1.80023  34.54478
  3.50350   1.95021  34.64238
  3.55355   2.05701  34.74534
  3.60360   2.10593  34.85074
  3.65365   2.09485  34.95559
  3.70370   2.03353  35.05737
  3.75375   1.93841  35.15438
  3.80380   1.82646  35.24580
  3.85385   1.71161  35.33146
  3.90390   1.60453  35.41177
  3.95395   1.51330  35.48751
  4.00400   1.44224  35.55969
  4.05405   1.38866  35.62920
  4.10410   1.34041  35.69628
  4.15415   1.27769  35.76023
  4.20420   1.18029  35.81931
  4.25425   1.03734  35.87123
  4.30430   0.85404  35.91397
  4.35435   0.65078  35.94654
  4.40440   0.45493  35.96931
  4.45445   0.28985  35.98382
  4.50450   0.16750  35.99220
  4.55455   0.08747  35.99658
  4.60460   0.04116  35.99864
  4.65465   0.01741  35.99951
  4.70470   0.00660  35.99984
  4.75475   0.00224  35.99995
  4.80480   0.00068  35.99999
  4.85485   0.00018  36.00000
  4.90490   0.00004  36.00000
  4.95495   0.00001  36.00000
  5.00501   0.00000  36.00000
  5.05506   0.00000  36.00000
  5.10511   0.00000  36.00000
  5.15516   0.00000  36.00000
  5.20521   0.00000  36.00000
  5.25526   0.00000  36.00000
  5.30531   0.00000  36.00000
  5.35536   0.00000  36.00000
  5.40541   0.00000  36.00000
  5.45546  -0.00000  36.00000
  5.50551   0.00000  36.00000
  5.55556   0.00000  36.00000
  5.60561   0.00000  36.00000
  5.65566   0.00000  36.00000
  5.70571   0.00000  36.00000
  5.75576   0.00000  36.00000
  5.80581   0.00000  36.00000
  5.85586   0.00000  36.00000
  5.90591   0.00000  36.00000
  5.95596   0.00000  36.00000
  6.00601   0.00000  36.00000
  6.05606   0.00000  36.00000
  6.10611   0.00000  36.00000
  6.15616   0.00000  36.00000
  6.20621   0.00000  36.00000
  6.25626   0.00000  36.00000
  6.30631   0.00000  36.00000
  6.35636   0.00000  36.00000
  6.40641   0.00000  36.00000
  6.45646   0.00000  36.00000
  6.50651   0.00000  36.00000
  6.55656   0.00000  36.00000
  6.60661   0.00000  36.00000
  6.65666   0.00000  36.00000
  6.70671   0.00000  36.00000
  6.75676   0.00000  36.00000
  6.80681   0.00000  36.00000
  6.85686   0.00000  36.00000
  6.90691   0.00000  36.00000
  6.95696   0.00000  36.00000
  7.00701   0.00000  36.00000
  7.05706   0.00000  36.00000
  7.10711   0.00000  36.00000
  7.15716   0.00000  36.00000
  7.20721   0.00000  36.00000
  7.25726   0.00000  36.00000
  7.30731   0.00000  36.00000
  7.35736   0.00000  36.00000
  7.40741   0.00000  36.00000
  7.45746   0.00000  36.00000
  7.50751   0.00000  36.00000
  7.55756   0.00000  36.00000
  7.60761   0.00000  36.00000
  7.65766   0.00000  36.00000
  7.70771   0.00000  36.00000
  7.75776   0.00000  36.00000
  7.80781   0.00000  36.00000
  7.85786   0.00000  36.00000
  7.90791   0.00000  36.00000
  7.95796   0.00000  36.00000
  8.00801   0.00000  36.00000
  8.05806   0.00000  36.00000
  8.10811   0.00000  36.00000
  8.15816   0.00000  36.00000
  8.20821   0.00000  36.00000
  8.25826   0.00000  36.00000
  8.30831   0.00000  36.00000
  8.35836   0.00000  36.00000
  8.40841   0.00000  36.00000
  8.45846   0.00000  36.00000
  8.50851   0.00000  36.00000
  8.55856   0.00000  36.00000
  8.60861   0.00000  36.00000
  8.65866   0.00000  36.00000
  8.70871   0.00000  36.00000
  8.75876   0.00000  36.00000
  8.80881   0.00000  36.00000
  8.85886   0.00000  36.00000
  8.90891   0.00000  36.00000
  8.95896   0.00000  36.00000
  9.00901   0.00000  36.00000
  9.05906   0.00000  36.00000
  9.10911   0.00000  36.00000
  9.15916   0.00000  36.00000
  9.20921   0.00000  36.00000
  9.25926   0.00000  36.00000
  9.30931   0.00000  36.00000
  9.35936   0.00000  36.00000
  9.40941   0.00000  36.00000
  9.45946   0.00000  36.00000
  9.50951   0.00000  36.00000
  9.55956   0.00000  36.00000
  9.60961   0.00000  36.00000
  9.65966   0.00000  36.00000
  9.70971   0.00000  36.00000
  9.75976   0.00000  36.00000
  9.80981   0.00000  36.00000
  9.85986   0.00000  36.00000
  9.90991   0.00000  36.00000
  9.95996   0.00000  36.00000
 10.01001   0.00000  36.00000
 10.06006   0.00000  36.00000
 10.11011   0.00000  36.00000
 10.16016   0.00000  36.00000
 10.21021   0.00000  36.00000
 10.26026   0.00000  36.00000
 10.31031   0.00000  36.00000
 10.36036   0.00000  36.00000
 10.41041   0.00000  36.00000
 10.46046   0.00000  36.00000
 10.51051   0.00000  36.00000
 10.56056   0.00000  36.00000
 10.61061   0.00000  36.00000
 10.66066   0.00000  36.00000
 10.71071   0.00000  36.00000
 10.76076   0.00000  36.00000
 10.81081   0.00000  36.00000
 10.86086   0.00000  36.00000
 10.91091   0.00000  36.00000
 10.96096   0.00000  36.00000
 11.01101   0.00000  36.00000
 11.06106   0.00000  36.00000
 11.11111   0.00000  36.00000
 11.16116   0.00000  36.00000
 11.21121   0.00000  36.00000
 11.26126   0.00000  36.00000
 11.31131   0.00000  36.00000
 11.36136   0.00000  36.00000
 11.41141   0.00000  36.00000
 11.46146   0.00000  36.00000
 11.51151   0.00000  36.00000
 11.56156   0.00000  36.00000
 11.61161   0.00000  36.00000
 11.66166   0.00000  36.00000
 11.71171   0.00000  36.00000
 11.76176   0.00000  36.00000
 11.81181   0.00000  36.00000
 11.86186   0.00000  36.00000
 11.91191   0.00000  36.00000
 11.96196   0.00000  36.00000
 12.01201   0.00000  36.00000
 12.06206   0.00000  36.00000
 12.11211   0.00000  36.00000
 12.16216   0.00000  36.00000
 12.21221   0.00000  36.00000
 12.26226   0.00000  36.00000
 12.31231   0.00000  36.00000
 12.36236   0.00000  36.00000
 12.41241   0.00000  36.00000
 12.46246   0.00000  36.00000
 12.51251   0.00000  36.00000
 12.56256   0.00000  36.00000
 12.61261   0.00000  36.00000
 12.66266   0.00000  36.00000
 12.71271   0.00000  36.00000
 12.76276   0.00000  36.00000
 12.81281   0.00000  36.00000
 12.86286   0.00000  36.00000
 12.91291   0.00000  36.00000
 12.96296   0.00000  36.00000
 13.01301   0.00000  36.00000
 13.06306   0.00000  36.00000
 13.11311   0.00000  36.00000
 13.16316   0.00000  36.00000
 13.21321   0.00000  36.00000
 13.26326   0.00000  36.00000
 13.31331   0.00000  36.00000
 13.36336   0.00000  36.00000
 13.41341   0.00000  36.00000
 13.46346   0.00000  36.00000
 13.51351   0.00000  36.00000
 13.56356   0.00000  36.00000
 13.61361   0.00000  36.00000
 13.66366   0.00000  36.00000
 13.71371   0.00000  36.00000
 13.76376   0.00000  36.00000
 13.81381   0.00000  36.00000
 13.86386   0.00000  36.00000
 13.91391   0.00000  36.00000
 13.96396   0.00000  36.00000
 14.01401   0.00000  36.00000
 14.06406   0.00000  36.00000
 14.11411   0.00000  36.00000
 14.16416   0.00000  36.00000
 14.21421   0.00000  36.00000
 14.26426   0.00000  36.00000
 14.31431   0.00000  36.00000
 14.36436   0.00000  36.00000
 14.41441   0.00000  36.00000
 14.46446   0.00000  36.00000
 14.51451   0.00000  36.00000
 14.56456   0.00000  36.00000
 14.61461   0.00000  36.00000
 14.66466   0.00000  36.00000
 14.71471   0.00000  36.00000
 14.76476   0.00000  36.00000
 14.81481   0.00000  36.00000
 14.86486   0.00000  36.00000
 14.91491   0.00000  36.00000
 14.96496   0.00000  36.00000
 15.01502   0.00000  36.00000
 15.06507   0.00000  36.00000
 15.11512   0.00000  36.00000
 15.16517   0.00000  36.00000
 15.21522   0.00000  36.00000
 15.26527   0.00000  36.00000
 15.31532   0.00000  36.00000
 15.36537   0.00000  36.00000
 15.41542   0.00000  36.00000
 15.46547   0.00000  36.00000
 15.51552   0.00000  36.00000
 15.56557   0.00000  36.00000
 15.61562   0.00000  36.00000
 15.66567   0.00000  36.00000
 15.71572   0.00000  36.00000
 15.76577   0.00000  36.00000
 15.81582   0.00000  36.00000
 15.86587   0.00000  36.00000
 15.91592   0.00000  36.00000
 15.96597   0.00000  36.00000
 16.01602   0.00000  36.00000
 16.06607   0.00000  36.00000
 16.11612   0.00000  36.00000
 16.16617   0.00000  36.00000
 16.21622   0.00000  36.00000
 16.26627   0.00000  36.00000
 16.31632   0.00000  36.00000
 16.36637   0.00000  36.00000
 16.41642   0.00000  36.00000
 16.46647   0.00000  36.00000
 16.51652   0.00000  36.00000
 16.56657   0.00000  36.00000
 16.61662   0.00000  36.00000
 16.66667   0.00000  36.00000
 16.71672   0.00000  36.00000
 16.76677   0.00000  36.00000
 16.81682   0.00000  36.00000
 16.86687   0.00000  36.00000
 16.91692   0.00000  36.00000
 16.96697   0.00000  36.00000
 17.01702   0.00000  36.00000
 17.06707   0.00000  36.00000
 17.11712   0.00000  36.00000
 17.16717   0.00000  36.00000
 17.21722   0.00000  36.00000
 17.26727   0.00000  36.00000
 17.31732   0.00000  36.00000
 17.36737   0.00000  36.00000
 17.41742   0.00000  36.00000
 17.46747   0.00000  36.00000
 17.51752   0.00000  36.00000
 17.56757   0.00000  36.00000
 17.61762   0.00000  36.00000
 17.66767   0.00000  36.00000
 17.71772   0.00000  36.00000
 17.76777   0.00000  36.00000
 17.81782   0.00000  36.00000
 17.86787   0.00000  36.00000
 17.91792   0.00000  36.00000
 17.96797   0.00000  36.00000
 18.01802   0.00000  36.00000
 18.06807   0.00000  36.00000
 18.11812   0.00000  36.00000
 18.16817   0.00000  36.00000
 18.21822   0.00000  36.00000
 18.26827   0.00000  36.00000
 18.31832   0.00000  36.00000
 18.36837   0.00000  36.00000
 18.41842   0.00000  36.00000
 18.46847   0.00000  36.00000
 18.51852   0.00000  36.00000
 18.56857   0.00000  36.00000
 18.61862   0.00000  36.00000
 18.66867   0.00000  36.00000
 18.71872   0.00000  36.00000
 18.76877   0.00000  36.00000
 18.81882   0.00000  36.00000
 18.86887   0.00000  36.00000
 18.91892   0.00000  36.00000
 18.96897   0.00000  36.00000
 19.01902   0.00000  36.00000
 19.06907   0.00000  36.00000
 19.11912   0.00000  36.00000
 19.16917   0.00000  36.00000
 19.21922   0.00000  36.00000
 19.26927   0.00000  36.00000
 19.31932   0.00000  36.00000
 19.36937   0.00000  36.00000
 19.41942   0.00000  36.00000