  COHP#       atomMU       atomNU     distance     translation      ICOHP (at) eF   for spin  1
      1          Sn1          Te2      3.01769       0   0   0           -2.00647 
      1       Sn1_5s       Te2_5s      3.01769       0   0   0           -0.01156 
      1       Sn1_5s     Te2_5p_y      3.01769       0   0   0           -0.07549 
      1       Sn1_5s     Te2_5p_z      3.01769       0   0   0           -0.00401 
      1       Sn1_5s     Te2_5p_x      3.01769       0   0   0           -0.07561 
      1       Sn1_5s    Te2_4d_xy      3.01769       0   0   0           -0.00028 
      1       Sn1_5s    Te2_4d_yz      3.01769       0   0   0           -0.00012 
      1       Sn1_5s   Te2_4d_z^2      3.01769       0   0   0           -0.00007 
      1       Sn1_5s    Te2_4d_xz      3.01769       0   0   0           -0.00012 
      1       Sn1_5s Te2_4d_x^2-y^2      3.01769       0   0   0           -0.00000 
      1     Sn1_5p_y       Te2_5s      3.01769       0   0   0           -0.15255 
      1     Sn1_5p_y     Te2_5p_y      3.01769       0   0   0           -0.11712 
      1     Sn1_5p_y     Te2_5p_z      3.01769       0   0   0           -0.16445 
      1     Sn1_5p_y     Te2_5p_x      3.01769       0   0   0           -0.22188 
      1     Sn1_5p_y    Te2_4d_xy      3.01769       0   0   0           -0.00227 
      1     Sn1_5p_y    Te2_4d_yz      3.01769       0   0   0           -0.00114 
      1     Sn1_5p_y   Te2_4d_z^2      3.01769       0   0   0           -0.00000 
      1     Sn1_5p_y    Te2_4d_xz      3.01769       0   0   0           -0.00223 
      1     Sn1_5p_y Te2_4d_x^2-y^2      3.01769       0   0   0           -0.00033 
      1     Sn1_5p_z       Te2_5s      3.01769       0   0   0           -0.11055 
      1     Sn1_5p_z     Te2_5p_y      3.01769       0   0   0           -0.19396 
      1     Sn1_5p_z     Te2_5p_z      3.01769       0   0   0           -0.00178 
      1     Sn1_5p_z     Te2_5p_x      3.01769       0   0   0           -0.19378 
      1     Sn1_5p_z    Te2_4d_xy      3.01769       0   0   0           -0.00306 
      1     Sn1_5p_z    Te2_4d_yz      3.01769       0   0   0           -0.00014 
      1     Sn1_5p_z   Te2_4d_z^2      3.01769       0   0   0           -0.00091 
      1     Sn1_5p_z    Te2_4d_xz      3.01769       0   0   0           -0.00014 
      1     Sn1_5p_z Te2_4d_x^2-y^2      3.01769       0   0   0           -0.00000 
      1     Sn1_5p_x       Te2_5s      3.01769       0   0   0           -0.15272 
      1     Sn1_5p_x     Te2_5p_y      3.01769       0   0   0           -0.22196 
      1     Sn1_5p_x     Te2_5p_z      3.01769       0   0   0           -0.16420 
      1     Sn1_5p_x     Te2_5p_x      3.01769       0   0   0           -0.11741 
      1     Sn1_5p_x    Te2_4d_xy      3.01769       0   0   0           -0.00227 
      1     Sn1_5p_x    Te2_4d_yz      3.01769       0   0   0           -0.00223 
      1     Sn1_5p_x   Te2_4d_z^2      3.01769       0   0   0           -0.00000 
      1     Sn1_5p_x    Te2_4d_xz      3.01769       0   0   0           -0.00114 
      1     Sn1_5p_x Te2_4d_x^2-y^2      3.01769       0   0   0           -0.00033 
      1    Sn1_4d_xy       Te2_5s      3.01769       0   0   0           -0.00002 
      1    Sn1_4d_xy     Te2_5p_y      3.01769       0   0   0           -0.00106 
      1    Sn1_4d_xy     Te2_5p_z      3.01769       0   0   0           -0.00056 
      1    Sn1_4d_xy     Te2_5p_x      3.01769       0   0   0           -0.00106 
      1    Sn1_4d_xy    Te2_4d_xy      3.01769       0   0   0            0.00000 
      1    Sn1_4d_xy    Te2_4d_yz      3.01769       0   0   0           -0.00000 
      1    Sn1_4d_xy   Te2_4d_z^2      3.01769       0   0   0            0.00000 
      1    Sn1_4d_xy    Te2_4d_xz      3.01769       0   0   0           -0.00000 
      1    Sn1_4d_xy Te2_4d_x^2-y^2      3.01769       0   0   0            0.00000 
      1    Sn1_4d_yz       Te2_5s      3.01769       0   0   0           -0.00028 
      1    Sn1_4d_yz     Te2_5p_y      3.01769       0   0   0           -0.00108 
      1    Sn1_4d_yz     Te2_5p_z      3.01769       0   0   0           -0.00036 
      1    Sn1_4d_yz     Te2_5p_x      3.01769       0   0   0           -0.00224 
      1    Sn1_4d_yz    Te2_4d_xy      3.01769       0   0   0            0.00000 
      1    Sn1_4d_yz    Te2_4d_yz      3.01769       0   0   0           -0.00000 
      1    Sn1_4d_yz   Te2_4d_z^2      3.01769       0   0   0            0.00000 
      1    Sn1_4d_yz    Te2_4d_xz      3.01769       0   0   0           -0.00000 
      1    Sn1_4d_yz Te2_4d_x^2-y^2      3.01769       0   0   0           -0.00000 
      1   Sn1_4d_z^2       Te2_5s      3.01769       0   0   0           -0.00004 
      1   Sn1_4d_z^2     Te2_5p_y      3.01769       0   0   0            0.00000 
      1   Sn1_4d_z^2     Te2_5p_z      3.01769       0   0   0           -0.00015 
      1   Sn1_4d_z^2     Te2_5p_x      3.01769       0   0   0            0.00000 
      1   Sn1_4d_z^2    Te2_4d_xy      3.01769       0   0   0           -0.00000 
      1   Sn1_4d_z^2    Te2_4d_yz      3.01769       0   0   0            0.00000 
      1   Sn1_4d_z^2   Te2_4d_z^2      3.01769       0   0   0            0.00000 
      1   Sn1_4d_z^2    Te2_4d_xz      3.01769       0   0   0            0.00000 
      1   Sn1_4d_z^2 Te2_4d_x^2-y^2      3.01769       0   0   0           -0.00000 
      1    Sn1_4d_xz       Te2_5s      3.01769       0   0   0           -0.00028 
      1    Sn1_4d_xz     Te2_5p_y      3.01769       0   0   0           -0.00224 
      1    Sn1_4d_xz     Te2_5p_z      3.01769       0   0   0           -0.00036 
      1    Sn1_4d_xz     Te2_5p_x      3.01769       0   0   0           -0.00108 
      1    Sn1_4d_xz    Te2_4d_xy      3.01769       0   0   0            0.00000 
      1    Sn1_4d_xz    Te2_4d_yz      3.01769       0   0   0           -0.00000 
      1    Sn1_4d_xz   Te2_4d_z^2      3.01769       0   0   0            0.00000 
      1    Sn1_4d_xz    Te2_4d_xz      3.01769       0   0   0           -0.00000 
      1    Sn1_4d_xz Te2_4d_x^2-y^2      3.01769       0   0   0           -0.00000 
      1 Sn1_4d_x^2-y^2       Te2_5s      3.01769       0   0   0           -0.00000 
      1 Sn1_4d_x^2-y^2     Te2_5p_y      3.01769       0   0   0            0.00011 
      1 Sn1_4d_x^2-y^2     Te2_5p_z      3.01769       0   0   0            0.00000 
      1 Sn1_4d_x^2-y^2     Te2_5p_x      3.01769       0   0   0            0.00011 
      1 Sn1_4d_x^2-y^2    Te2_4d_xy      3.01769       0   0   0            0.00000 
      1 Sn1_4d_x^2-y^2    Te2_4d_yz      3.01769       0   0   0            0.00000 
      1 Sn1_4d_x^2-y^2   Te2_4d_z^2      3.01769       0   0   0           -0.00000 
      1 Sn1_4d_x^2-y^2    Te2_4d_xz      3.01769       0   0   0            0.00000 
      1 Sn1_4d_x^2-y^2 Te2_4d_x^2-y^2      3.01769       0   0   0            0.00000 
