
     Program PWSCF v.6.4.1 starts on 16Oct2023 at  8:14: 5 

     This program is part of the open-source Quantum ESPRESSO suite
     for quantum simulation of materials; please cite
         "P. Giannozzi et al., J. Phys.:Condens. Matter 21 395502 (2009);
         "P. Giannozzi et al., J. Phys.:Condens. Matter 29 465901 (2017);
          URL http://www.quantum-espresso.org", 
     in publications or presentations arising from this work. More details at
     http://www.quantum-espresso.org/quote

     Parallel version (MPI & OpenMP), running on       4 processor cores
     Number of MPI processes:                 4
     Threads/MPI process:                     1

     MPI processes distributed on     1 nodes
     R & G space division:  proc/nbgrp/npool/nimage =       4
     Waiting for input...
     Reading input from standard input
Warning: card &IONS ignored
Warning: card / ignored
Warning: card &CELL ignored
Warning: card / ignored

     Current dimensions of program PWSCF are:
     Max number of different atomic species (ntypx) = 10
     Max number of k-points (npk) =  40000
     Max angular momentum in pseudopotentials (lmaxx) =  3
               file Sn.pz-dn-kjpaw_psl.0.2.UPF: wavefunction(s)  5P 4D renormalized
               file Te.pz-dn-kjpaw_psl.0.2.2.UPF: wavefunction(s)  5S 5P 4D renormalized

     Subspace diagonalization in iterative solution of the eigenvalue problem:
     a serial algorithm will be used

 
     Parallelization info
     --------------------
     sticks:   dense  smooth     PW     G-vecs:    dense   smooth      PW
     Min         402     199     60                42220    14883    2404
     Max         403     200     61                42229    14893    2411
     Sum        1609     797    241               168893    59547    9625
 

     Title: 
      PbTe_PZ                                                                   


     bravais-lattice index     =            0
     lattice parameter (alat)  =       7.3000  a.u.
     unit-cell volume          =    1249.7667 (a.u.)^3
     number of atoms/cell      =            2
     number of atomic types    =            2
     number of electrons       =        30.00
     number of Kohn-Sham states=           40
     kinetic-energy cutoff     =      50.0000  Ry
     charge density cutoff     =     400.0000  Ry
     convergence threshold     =      1.0E-08
     mixing beta               =       0.7000
     number of iterations used =            8  plain     mixing
     Exchange-correlation      = SLA PZ NOGX NOGC ( 1  1  0  0 0 0)

     celldm(1)=   7.300000  celldm(2)=   0.000000  celldm(3)=   0.000000
     celldm(4)=   0.000000  celldm(5)=   0.000000  celldm(6)=   0.000000

     crystal axes: (cart. coord. in units of alat)
               a(1) = (   0.975125   0.000057   0.000000 )  
               a(2) = (   0.000057   0.975105   0.000000 )  
               a(3) = (   0.000000   0.000000   3.378690 )  

     reciprocal axes: (cart. coord. in units 2 pi/alat)
               b(1) = (  1.025509 -0.000060  0.000000 )  
               b(2) = ( -0.000060  1.025530  0.000000 )  
               b(3) = (  0.000000  0.000000  0.295973 )  


     PseudoPot. # 1 for Sn read from file:
     /home/raagya/pseudo/Sn.pz-dn-kjpaw_psl.0.2.UPF
     MD5 check sum: 4ae5dc40354335ee230663518864dfb4
     Pseudo is Projector augmented-wave + core cor, Zval = 14.0
     Generated using "atomic" code by A. Dal Corso v.5.0.2 svn rev. 9415
     Shape of augmentation charge: BESSEL
     Using radial grid of 1243 points,  6 beta functions with: 
                l(1) =   0
                l(2) =   0
                l(3) =   1
                l(4) =   1
                l(5) =   2
                l(6) =   2
     Q(r) pseudized with 0 coefficients 


     PseudoPot. # 2 for Te read from file:
     /home/raagya/pseudo/Te.pz-dn-kjpaw_psl.0.2.2.UPF
     MD5 check sum: 848335cf92ad1717ddde3348b6640de7
     Pseudo is Projector augmented-wave + core cor, Zval = 16.0
     Generated using "atomic" code by A. Dal Corso v.5.0.2 svn rev. 9415
     Shape of augmentation charge: PSQ
     Using radial grid of 1245 points,  6 beta functions with: 
                l(1) =   0
                l(2) =   0
                l(3) =   1
                l(4) =   1
                l(5) =   2
                l(6) =   2
     Q(r) pseudized with 0 coefficients 


     atomic species   valence    mass     pseudopotential
        Sn            14.00   118.71000     Sn( 1.00)
        Te            16.00   127.60000     Te( 1.00)

     No symmetry found


                                    s                        frac. trans.

      isym =  1     identity                                     

 cryst.   s( 1) = (     1          0          0      )
                  (     0          1          0      )
                  (     0          0          1      )

 cart.    s( 1) = (  1.0000000  0.0000000  0.0000000 )
                  (  0.0000000  1.0000000  0.0000000 )
                  (  0.0000000  0.0000000  1.0000000 )


   Cartesian axes

     site n.     atom                  positions (alat units)
         1           Sn  tau(   1) = (   0.0009441   0.0019890   0.2004867  )
         2           Te  tau(   2) = (   0.4885264   0.4895129  -0.1666998  )

   Crystallographic axes

     site n.     atom                  positions (cryst. coord.)
         1           Sn  tau(   1) = (  0.0009681  0.0020397  0.0593386  )
         2           Te  tau(   2) = (  0.5009588  0.5019808 -0.0493386  )

     number of k points=  1600  Fermi-Dirac smearing, width (Ry)=  0.0030
                       cart. coord. in units 2pi/alat
        k(    1) = (   0.0000000   0.0000000   0.0000000), wk =   0.0012500
        k(    2) = (  -0.0000015   0.0256383   0.0000000), wk =   0.0012500
        k(    3) = (  -0.0000030   0.0512765   0.0000000), wk =   0.0012500
        k(    4) = (  -0.0000045   0.0769148   0.0000000), wk =   0.0012500
        k(    5) = (  -0.0000060   0.1025530   0.0000000), wk =   0.0012500
        k(    6) = (  -0.0000075   0.1281913   0.0000000), wk =   0.0012500
        k(    7) = (  -0.0000090   0.1538295   0.0000000), wk =   0.0012500
        k(    8) = (  -0.0000105   0.1794678   0.0000000), wk =   0.0012500
        k(    9) = (  -0.0000121   0.2051061   0.0000000), wk =   0.0012500
        k(   10) = (  -0.0000136   0.2307443   0.0000000), wk =   0.0012500
        k(   11) = (  -0.0000151   0.2563826   0.0000000), wk =   0.0012500
        k(   12) = (  -0.0000166   0.2820208   0.0000000), wk =   0.0012500
        k(   13) = (  -0.0000181   0.3076591   0.0000000), wk =   0.0012500
        k(   14) = (  -0.0000196   0.3332973   0.0000000), wk =   0.0012500
        k(   15) = (  -0.0000211   0.3589356   0.0000000), wk =   0.0012500
        k(   16) = (  -0.0000226   0.3845738   0.0000000), wk =   0.0012500
        k(   17) = (  -0.0000241   0.4102121   0.0000000), wk =   0.0012500
        k(   18) = (  -0.0000256   0.4358504   0.0000000), wk =   0.0012500
        k(   19) = (  -0.0000271   0.4614886   0.0000000), wk =   0.0012500
        k(   20) = (  -0.0000286   0.4871269   0.0000000), wk =   0.0012500
        k(   21) = (   0.0000301  -0.5127651   0.0000000), wk =   0.0012500
        k(   22) = (   0.0000286  -0.4871269   0.0000000), wk =   0.0012500
        k(   23) = (   0.0000271  -0.4614886   0.0000000), wk =   0.0012500
        k(   24) = (   0.0000256  -0.4358504   0.0000000), wk =   0.0012500
        k(   25) = (   0.0000241  -0.4102121   0.0000000), wk =   0.0012500
        k(   26) = (   0.0000226  -0.3845738   0.0000000), wk =   0.0012500
        k(   27) = (   0.0000211  -0.3589356   0.0000000), wk =   0.0012500
        k(   28) = (   0.0000196  -0.3332973   0.0000000), wk =   0.0012500
        k(   29) = (   0.0000181  -0.3076591   0.0000000), wk =   0.0012500
        k(   30) = (   0.0000166  -0.2820208   0.0000000), wk =   0.0012500
        k(   31) = (   0.0000151  -0.2563826   0.0000000), wk =   0.0012500
        k(   32) = (   0.0000136  -0.2307443   0.0000000), wk =   0.0012500
        k(   33) = (   0.0000121  -0.2051061   0.0000000), wk =   0.0012500
        k(   34) = (   0.0000105  -0.1794678   0.0000000), wk =   0.0012500
        k(   35) = (   0.0000090  -0.1538295   0.0000000), wk =   0.0012500
        k(   36) = (   0.0000075  -0.1281913   0.0000000), wk =   0.0012500
        k(   37) = (   0.0000060  -0.1025530   0.0000000), wk =   0.0012500
        k(   38) = (   0.0000045  -0.0769148   0.0000000), wk =   0.0012500
        k(   39) = (   0.0000030  -0.0512765   0.0000000), wk =   0.0012500
        k(   40) = (   0.0000015  -0.0256383   0.0000000), wk =   0.0012500
        k(   41) = (   0.0256377  -0.0000015   0.0000000), wk =   0.0012500
        k(   42) = (   0.0256362   0.0256367   0.0000000), wk =   0.0012500
        k(   43) = (   0.0256347   0.0512750   0.0000000), wk =   0.0012500
        k(   44) = (   0.0256332   0.0769133   0.0000000), wk =   0.0012500
        k(   45) = (   0.0256317   0.1025515   0.0000000), wk =   0.0012500
        k(   46) = (   0.0256302   0.1281898   0.0000000), wk =   0.0012500
        k(   47) = (   0.0256287   0.1538280   0.0000000), wk =   0.0012500
        k(   48) = (   0.0256272   0.1794663   0.0000000), wk =   0.0012500
        k(   49) = (   0.0256257   0.2051045   0.0000000), wk =   0.0012500
        k(   50) = (   0.0256242   0.2307428   0.0000000), wk =   0.0012500
        k(   51) = (   0.0256227   0.2563811   0.0000000), wk =   0.0012500
        k(   52) = (   0.0256211   0.2820193   0.0000000), wk =   0.0012500
        k(   53) = (   0.0256196   0.3076576   0.0000000), wk =   0.0012500
        k(   54) = (   0.0256181   0.3332958   0.0000000), wk =   0.0012500
        k(   55) = (   0.0256166   0.3589341   0.0000000), wk =   0.0012500
        k(   56) = (   0.0256151   0.3845723   0.0000000), wk =   0.0012500
        k(   57) = (   0.0256136   0.4102106   0.0000000), wk =   0.0012500
        k(   58) = (   0.0256121   0.4358489   0.0000000), wk =   0.0012500
        k(   59) = (   0.0256106   0.4614871   0.0000000), wk =   0.0012500
        k(   60) = (   0.0256091   0.4871254   0.0000000), wk =   0.0012500
        k(   61) = (   0.0256679  -0.5127666   0.0000000), wk =   0.0012500
        k(   62) = (   0.0256664  -0.4871284   0.0000000), wk =   0.0012500
        k(   63) = (   0.0256649  -0.4614901   0.0000000), wk =   0.0012500
        k(   64) = (   0.0256633  -0.4358519   0.0000000), wk =   0.0012500
        k(   65) = (   0.0256618  -0.4102136   0.0000000), wk =   0.0012500
        k(   66) = (   0.0256603  -0.3845754   0.0000000), wk =   0.0012500
        k(   67) = (   0.0256588  -0.3589371   0.0000000), wk =   0.0012500
        k(   68) = (   0.0256573  -0.3332988   0.0000000), wk =   0.0012500
        k(   69) = (   0.0256558  -0.3076606   0.0000000), wk =   0.0012500
        k(   70) = (   0.0256543  -0.2820223   0.0000000), wk =   0.0012500
        k(   71) = (   0.0256528  -0.2563841   0.0000000), wk =   0.0012500
        k(   72) = (   0.0256513  -0.2307458   0.0000000), wk =   0.0012500
        k(   73) = (   0.0256498  -0.2051076   0.0000000), wk =   0.0012500
        k(   74) = (   0.0256483  -0.1794693   0.0000000), wk =   0.0012500
        k(   75) = (   0.0256468  -0.1538310   0.0000000), wk =   0.0012500
        k(   76) = (   0.0256453  -0.1281928   0.0000000), wk =   0.0012500
        k(   77) = (   0.0256438  -0.1025545   0.0000000), wk =   0.0012500
        k(   78) = (   0.0256422  -0.0769163   0.0000000), wk =   0.0012500
        k(   79) = (   0.0256407  -0.0512780   0.0000000), wk =   0.0012500
        k(   80) = (   0.0256392  -0.0256398   0.0000000), wk =   0.0012500
        k(   81) = (   0.0512755  -0.0000030   0.0000000), wk =   0.0012500
        k(   82) = (   0.0512739   0.0256352   0.0000000), wk =   0.0012500
        k(   83) = (   0.0512724   0.0512735   0.0000000), wk =   0.0012500
        k(   84) = (   0.0512709   0.0769118   0.0000000), wk =   0.0012500
        k(   85) = (   0.0512694   0.1025500   0.0000000), wk =   0.0012500
        k(   86) = (   0.0512679   0.1281883   0.0000000), wk =   0.0012500
        k(   87) = (   0.0512664   0.1538265   0.0000000), wk =   0.0012500
        k(   88) = (   0.0512649   0.1794648   0.0000000), wk =   0.0012500
        k(   89) = (   0.0512634   0.2051030   0.0000000), wk =   0.0012500
        k(   90) = (   0.0512619   0.2307413   0.0000000), wk =   0.0012500
        k(   91) = (   0.0512604   0.2563795   0.0000000), wk =   0.0012500
        k(   92) = (   0.0512589   0.2820178   0.0000000), wk =   0.0012500
        k(   93) = (   0.0512574   0.3076561   0.0000000), wk =   0.0012500
        k(   94) = (   0.0512559   0.3332943   0.0000000), wk =   0.0012500
        k(   95) = (   0.0512544   0.3589326   0.0000000), wk =   0.0012500
        k(   96) = (   0.0512528   0.3845708   0.0000000), wk =   0.0012500
        k(   97) = (   0.0512513   0.4102091   0.0000000), wk =   0.0012500
        k(   98) = (   0.0512498   0.4358473   0.0000000), wk =   0.0012500
        k(   99) = (   0.0512483   0.4614856   0.0000000), wk =   0.0012500
        k(  100) = (   0.0512468   0.4871239   0.0000000), wk =   0.0012500
        k(  101) = (   0.0513056  -0.5127681   0.0000000), wk =   0.0012500
        k(  102) = (   0.0513041  -0.4871299   0.0000000), wk =   0.0012500
        k(  103) = (   0.0513026  -0.4614916   0.0000000), wk =   0.0012500
        k(  104) = (   0.0513011  -0.4358534   0.0000000), wk =   0.0012500
        k(  105) = (   0.0512996  -0.4102151   0.0000000), wk =   0.0012500
        k(  106) = (   0.0512981  -0.3845769   0.0000000), wk =   0.0012500
        k(  107) = (   0.0512965  -0.3589386   0.0000000), wk =   0.0012500
        k(  108) = (   0.0512950  -0.3333003   0.0000000), wk =   0.0012500
        k(  109) = (   0.0512935  -0.3076621   0.0000000), wk =   0.0012500
        k(  110) = (   0.0512920  -0.2820238   0.0000000), wk =   0.0012500
        k(  111) = (   0.0512905  -0.2563856   0.0000000), wk =   0.0012500
        k(  112) = (   0.0512890  -0.2307473   0.0000000), wk =   0.0012500
        k(  113) = (   0.0512875  -0.2051091   0.0000000), wk =   0.0012500
        k(  114) = (   0.0512860  -0.1794708   0.0000000), wk =   0.0012500
        k(  115) = (   0.0512845  -0.1538326   0.0000000), wk =   0.0012500
        k(  116) = (   0.0512830  -0.1281943   0.0000000), wk =   0.0012500
        k(  117) = (   0.0512815  -0.1025560   0.0000000), wk =   0.0012500
        k(  118) = (   0.0512800  -0.0769178   0.0000000), wk =   0.0012500
        k(  119) = (   0.0512785  -0.0512795   0.0000000), wk =   0.0012500
        k(  120) = (   0.0512770  -0.0256413   0.0000000), wk =   0.0012500
        k(  121) = (   0.0769132  -0.0000045   0.0000000), wk =   0.0012500
        k(  122) = (   0.0769117   0.0256337   0.0000000), wk =   0.0012500
        k(  123) = (   0.0769102   0.0512720   0.0000000), wk =   0.0012500
        k(  124) = (   0.0769087   0.0769102   0.0000000), wk =   0.0012500
        k(  125) = (   0.0769071   0.1025485   0.0000000), wk =   0.0012500
        k(  126) = (   0.0769056   0.1281868   0.0000000), wk =   0.0012500
        k(  127) = (   0.0769041   0.1538250   0.0000000), wk =   0.0012500
        k(  128) = (   0.0769026   0.1794633   0.0000000), wk =   0.0012500
        k(  129) = (   0.0769011   0.2051015   0.0000000), wk =   0.0012500
        k(  130) = (   0.0768996   0.2307398   0.0000000), wk =   0.0012500
        k(  131) = (   0.0768981   0.2563780   0.0000000), wk =   0.0012500
        k(  132) = (   0.0768966   0.2820163   0.0000000), wk =   0.0012500
        k(  133) = (   0.0768951   0.3076546   0.0000000), wk =   0.0012500
        k(  134) = (   0.0768936   0.3332928   0.0000000), wk =   0.0012500
        k(  135) = (   0.0768921   0.3589311   0.0000000), wk =   0.0012500
        k(  136) = (   0.0768906   0.3845693   0.0000000), wk =   0.0012500
        k(  137) = (   0.0768891   0.4102076   0.0000000), wk =   0.0012500
        k(  138) = (   0.0768876   0.4358458   0.0000000), wk =   0.0012500
        k(  139) = (   0.0768861   0.4614841   0.0000000), wk =   0.0012500
        k(  140) = (   0.0768845   0.4871223   0.0000000), wk =   0.0012500
        k(  141) = (   0.0769433  -0.5127696   0.0000000), wk =   0.0012500
        k(  142) = (   0.0769418  -0.4871314   0.0000000), wk =   0.0012500
        k(  143) = (   0.0769403  -0.4614931   0.0000000), wk =   0.0012500
        k(  144) = (   0.0769388  -0.4358549   0.0000000), wk =   0.0012500
        k(  145) = (   0.0769373  -0.4102166   0.0000000), wk =   0.0012500
        k(  146) = (   0.0769358  -0.3845784   0.0000000), wk =   0.0012500
        k(  147) = (   0.0769343  -0.3589401   0.0000000), wk =   0.0012500
        k(  148) = (   0.0769328  -0.3333019   0.0000000), wk =   0.0012500
        k(  149) = (   0.0769313  -0.3076636   0.0000000), wk =   0.0012500
        k(  150) = (   0.0769298  -0.2820253   0.0000000), wk =   0.0012500
        k(  151) = (   0.0769282  -0.2563871   0.0000000), wk =   0.0012500
        k(  152) = (   0.0769267  -0.2307488   0.0000000), wk =   0.0012500
        k(  153) = (   0.0769252  -0.2051106   0.0000000), wk =   0.0012500
        k(  154) = (   0.0769237  -0.1794723   0.0000000), wk =   0.0012500
        k(  155) = (   0.0769222  -0.1538341   0.0000000), wk =   0.0012500
        k(  156) = (   0.0769207  -0.1281958   0.0000000), wk =   0.0012500
        k(  157) = (   0.0769192  -0.1025575   0.0000000), wk =   0.0012500
        k(  158) = (   0.0769177  -0.0769193   0.0000000), wk =   0.0012500
        k(  159) = (   0.0769162  -0.0512810   0.0000000), wk =   0.0012500
        k(  160) = (   0.0769147  -0.0256428   0.0000000), wk =   0.0012500
        k(  161) = (   0.1025509  -0.0000060   0.0000000), wk =   0.0012500
        k(  162) = (   0.1025494   0.0256322   0.0000000), wk =   0.0012500
        k(  163) = (   0.1025479   0.0512705   0.0000000), wk =   0.0012500
        k(  164) = (   0.1025464   0.0769087   0.0000000), wk =   0.0012500
        k(  165) = (   0.1025449   0.1025470   0.0000000), wk =   0.0012500
        k(  166) = (   0.1025434   0.1281853   0.0000000), wk =   0.0012500
        k(  167) = (   0.1025419   0.1538235   0.0000000), wk =   0.0012500
        k(  168) = (   0.1025404   0.1794618   0.0000000), wk =   0.0012500
        k(  169) = (   0.1025388   0.2051000   0.0000000), wk =   0.0012500
        k(  170) = (   0.1025373   0.2307383   0.0000000), wk =   0.0012500
        k(  171) = (   0.1025358   0.2563765   0.0000000), wk =   0.0012500
        k(  172) = (   0.1025343   0.2820148   0.0000000), wk =   0.0012500
        k(  173) = (   0.1025328   0.3076530   0.0000000), wk =   0.0012500
        k(  174) = (   0.1025313   0.3332913   0.0000000), wk =   0.0012500
        k(  175) = (   0.1025298   0.3589296   0.0000000), wk =   0.0012500
        k(  176) = (   0.1025283   0.3845678   0.0000000), wk =   0.0012500
        k(  177) = (   0.1025268   0.4102061   0.0000000), wk =   0.0012500
        k(  178) = (   0.1025253   0.4358443   0.0000000), wk =   0.0012500
        k(  179) = (   0.1025238   0.4614826   0.0000000), wk =   0.0012500
        k(  180) = (   0.1025223   0.4871208   0.0000000), wk =   0.0012500
        k(  181) = (   0.1025810  -0.5127712   0.0000000), wk =   0.0012500
        k(  182) = (   0.1025795  -0.4871329   0.0000000), wk =   0.0012500
        k(  183) = (   0.1025780  -0.4614946   0.0000000), wk =   0.0012500
        k(  184) = (   0.1025765  -0.4358564   0.0000000), wk =   0.0012500
        k(  185) = (   0.1025750  -0.4102181   0.0000000), wk =   0.0012500
        k(  186) = (   0.1025735  -0.3845799   0.0000000), wk =   0.0012500
        k(  187) = (   0.1025720  -0.3589416   0.0000000), wk =   0.0012500
        k(  188) = (   0.1025705  -0.3333034   0.0000000), wk =   0.0012500
        k(  189) = (   0.1025690  -0.3076651   0.0000000), wk =   0.0012500
        k(  190) = (   0.1025675  -0.2820268   0.0000000), wk =   0.0012500
        k(  191) = (   0.1025660  -0.2563886   0.0000000), wk =   0.0012500
        k(  192) = (   0.1025645  -0.2307503   0.0000000), wk =   0.0012500
        k(  193) = (   0.1025630  -0.2051121   0.0000000), wk =   0.0012500
        k(  194) = (   0.1025615  -0.1794738   0.0000000), wk =   0.0012500
        k(  195) = (   0.1025599  -0.1538356   0.0000000), wk =   0.0012500
        k(  196) = (   0.1025584  -0.1281973   0.0000000), wk =   0.0012500
        k(  197) = (   0.1025569  -0.1025591   0.0000000), wk =   0.0012500
        k(  198) = (   0.1025554  -0.0769208   0.0000000), wk =   0.0012500
        k(  199) = (   0.1025539  -0.0512825   0.0000000), wk =   0.0012500
        k(  200) = (   0.1025524  -0.0256443   0.0000000), wk =   0.0012500
        k(  201) = (   0.1281886  -0.0000075   0.0000000), wk =   0.0012500
        k(  202) = (   0.1281871   0.0256307   0.0000000), wk =   0.0012500
        k(  203) = (   0.1281856   0.0512690   0.0000000), wk =   0.0012500
        k(  204) = (   0.1281841   0.0769072   0.0000000), wk =   0.0012500
        k(  205) = (   0.1281826   0.1025455   0.0000000), wk =   0.0012500
        k(  206) = (   0.1281811   0.1281837   0.0000000), wk =   0.0012500
        k(  207) = (   0.1281796   0.1538220   0.0000000), wk =   0.0012500
        k(  208) = (   0.1281781   0.1794603   0.0000000), wk =   0.0012500
        k(  209) = (   0.1281766   0.2050985   0.0000000), wk =   0.0012500
        k(  210) = (   0.1281751   0.2307368   0.0000000), wk =   0.0012500
        k(  211) = (   0.1281736   0.2563750   0.0000000), wk =   0.0012500
        k(  212) = (   0.1281721   0.2820133   0.0000000), wk =   0.0012500
        k(  213) = (   0.1281705   0.3076515   0.0000000), wk =   0.0012500
        k(  214) = (   0.1281690   0.3332898   0.0000000), wk =   0.0012500
        k(  215) = (   0.1281675   0.3589281   0.0000000), wk =   0.0012500
        k(  216) = (   0.1281660   0.3845663   0.0000000), wk =   0.0012500
        k(  217) = (   0.1281645   0.4102046   0.0000000), wk =   0.0012500
        k(  218) = (   0.1281630   0.4358428   0.0000000), wk =   0.0012500
        k(  219) = (   0.1281615   0.4614811   0.0000000), wk =   0.0012500
        k(  220) = (   0.1281600   0.4871193   0.0000000), wk =   0.0012500
        k(  221) = (   0.1282188  -0.5127727   0.0000000), wk =   0.0012500
        k(  222) = (   0.1282173  -0.4871344   0.0000000), wk =   0.0012500
        k(  223) = (   0.1282158  -0.4614961   0.0000000), wk =   0.0012500
        k(  224) = (   0.1282142  -0.4358579   0.0000000), wk =   0.0012500
        k(  225) = (   0.1282127  -0.4102196   0.0000000), wk =   0.0012500
        k(  226) = (   0.1282112  -0.3845814   0.0000000), wk =   0.0012500
        k(  227) = (   0.1282097  -0.3589431   0.0000000), wk =   0.0012500
        k(  228) = (   0.1282082  -0.3333049   0.0000000), wk =   0.0012500
        k(  229) = (   0.1282067  -0.3076666   0.0000000), wk =   0.0012500
        k(  230) = (   0.1282052  -0.2820284   0.0000000), wk =   0.0012500
        k(  231) = (   0.1282037  -0.2563901   0.0000000), wk =   0.0012500
        k(  232) = (   0.1282022  -0.2307518   0.0000000), wk =   0.0012500
        k(  233) = (   0.1282007  -0.2051136   0.0000000), wk =   0.0012500
        k(  234) = (   0.1281992  -0.1794753   0.0000000), wk =   0.0012500
        k(  235) = (   0.1281977  -0.1538371   0.0000000), wk =   0.0012500
        k(  236) = (   0.1281962  -0.1281988   0.0000000), wk =   0.0012500
        k(  237) = (   0.1281947  -0.1025606   0.0000000), wk =   0.0012500
        k(  238) = (   0.1281931  -0.0769223   0.0000000), wk =   0.0012500
        k(  239) = (   0.1281916  -0.0512840   0.0000000), wk =   0.0012500
        k(  240) = (   0.1281901  -0.0256458   0.0000000), wk =   0.0012500
        k(  241) = (   0.1538264  -0.0000090   0.0000000), wk =   0.0012500
        k(  242) = (   0.1538248   0.0256292   0.0000000), wk =   0.0012500
        k(  243) = (   0.1538233   0.0512675   0.0000000), wk =   0.0012500
        k(  244) = (   0.1538218   0.0769057   0.0000000), wk =   0.0012500
        k(  245) = (   0.1538203   0.1025440   0.0000000), wk =   0.0012500
        k(  246) = (   0.1538188   0.1281822   0.0000000), wk =   0.0012500
        k(  247) = (   0.1538173   0.1538205   0.0000000), wk =   0.0012500
        k(  248) = (   0.1538158   0.1794588   0.0000000), wk =   0.0012500
        k(  249) = (   0.1538143   0.2050970   0.0000000), wk =   0.0012500
        k(  250) = (   0.1538128   0.2307353   0.0000000), wk =   0.0012500
        k(  251) = (   0.1538113   0.2563735   0.0000000), wk =   0.0012500
        k(  252) = (   0.1538098   0.2820118   0.0000000), wk =   0.0012500
        k(  253) = (   0.1538083   0.3076500   0.0000000), wk =   0.0012500
        k(  254) = (   0.1538068   0.3332883   0.0000000), wk =   0.0012500
        k(  255) = (   0.1538053   0.3589265   0.0000000), wk =   0.0012500
        k(  256) = (   0.1538037   0.3845648   0.0000000), wk =   0.0012500
        k(  257) = (   0.1538022   0.4102031   0.0000000), wk =   0.0012500
        k(  258) = (   0.1538007   0.4358413   0.0000000), wk =   0.0012500
        k(  259) = (   0.1537992   0.4614796   0.0000000), wk =   0.0012500
        k(  260) = (   0.1537977   0.4871178   0.0000000), wk =   0.0012500
        k(  261) = (   0.1538565  -0.5127742   0.0000000), wk =   0.0012500
        k(  262) = (   0.1538550  -0.4871359   0.0000000), wk =   0.0012500
        k(  263) = (   0.1538535  -0.4614977   0.0000000), wk =   0.0012500
        k(  264) = (   0.1538520  -0.4358594   0.0000000), wk =   0.0012500
        k(  265) = (   0.1538505  -0.4102211   0.0000000), wk =   0.0012500
        k(  266) = (   0.1538490  -0.3845829   0.0000000), wk =   0.0012500
        k(  267) = (   0.1538475  -0.3589446   0.0000000), wk =   0.0012500
        k(  268) = (   0.1538459  -0.3333064   0.0000000), wk =   0.0012500
        k(  269) = (   0.1538444  -0.3076681   0.0000000), wk =   0.0012500
        k(  270) = (   0.1538429  -0.2820299   0.0000000), wk =   0.0012500
        k(  271) = (   0.1538414  -0.2563916   0.0000000), wk =   0.0012500
        k(  272) = (   0.1538399  -0.2307533   0.0000000), wk =   0.0012500
        k(  273) = (   0.1538384  -0.2051151   0.0000000), wk =   0.0012500
        k(  274) = (   0.1538369  -0.1794768   0.0000000), wk =   0.0012500
        k(  275) = (   0.1538354  -0.1538386   0.0000000), wk =   0.0012500
        k(  276) = (   0.1538339  -0.1282003   0.0000000), wk =   0.0012500
        k(  277) = (   0.1538324  -0.1025621   0.0000000), wk =   0.0012500
        k(  278) = (   0.1538309  -0.0769238   0.0000000), wk =   0.0012500
        k(  279) = (   0.1538294  -0.0512856   0.0000000), wk =   0.0012500
        k(  280) = (   0.1538279  -0.0256473   0.0000000), wk =   0.0012500
        k(  281) = (   0.1794641  -0.0000105   0.0000000), wk =   0.0012500
        k(  282) = (   0.1794626   0.0256277   0.0000000), wk =   0.0012500
        k(  283) = (   0.1794611   0.0512660   0.0000000), wk =   0.0012500
        k(  284) = (   0.1794596   0.0769042   0.0000000), wk =   0.0012500
        k(  285) = (   0.1794581   0.1025425   0.0000000), wk =   0.0012500
        k(  286) = (   0.1794565   0.1281807   0.0000000), wk =   0.0012500
        k(  287) = (   0.1794550   0.1538190   0.0000000), wk =   0.0012500
        k(  288) = (   0.1794535   0.1794572   0.0000000), wk =   0.0012500
        k(  289) = (   0.1794520   0.2050955   0.0000000), wk =   0.0012500
        k(  290) = (   0.1794505   0.2307338   0.0000000), wk =   0.0012500
        k(  291) = (   0.1794490   0.2563720   0.0000000), wk =   0.0012500
        k(  292) = (   0.1794475   0.2820103   0.0000000), wk =   0.0012500
        k(  293) = (   0.1794460   0.3076485   0.0000000), wk =   0.0012500
        k(  294) = (   0.1794445   0.3332868   0.0000000), wk =   0.0012500
        k(  295) = (   0.1794430   0.3589250   0.0000000), wk =   0.0012500
        k(  296) = (   0.1794415   0.3845633   0.0000000), wk =   0.0012500
        k(  297) = (   0.1794400   0.4102016   0.0000000), wk =   0.0012500
        k(  298) = (   0.1794385   0.4358398   0.0000000), wk =   0.0012500
        k(  299) = (   0.1794370   0.4614781   0.0000000), wk =   0.0012500
        k(  300) = (   0.1794354   0.4871163   0.0000000), wk =   0.0012500
        k(  301) = (   0.1794942  -0.5127757   0.0000000), wk =   0.0012500
        k(  302) = (   0.1794927  -0.4871374   0.0000000), wk =   0.0012500
        k(  303) = (   0.1794912  -0.4614992   0.0000000), wk =   0.0012500
        k(  304) = (   0.1794897  -0.4358609   0.0000000), wk =   0.0012500
        k(  305) = (   0.1794882  -0.4102226   0.0000000), wk =   0.0012500
        k(  306) = (   0.1794867  -0.3845844   0.0000000), wk =   0.0012500
        k(  307) = (   0.1794852  -0.3589461   0.0000000), wk =   0.0012500
        k(  308) = (   0.1794837  -0.3333079   0.0000000), wk =   0.0012500
        k(  309) = (   0.1794822  -0.3076696   0.0000000), wk =   0.0012500
        k(  310) = (   0.1794807  -0.2820314   0.0000000), wk =   0.0012500
        k(  311) = (   0.1794792  -0.2563931   0.0000000), wk =   0.0012500
        k(  312) = (   0.1794776  -0.2307549   0.0000000), wk =   0.0012500
        k(  313) = (   0.1794761  -0.2051166   0.0000000), wk =   0.0012500
        k(  314) = (   0.1794746  -0.1794783   0.0000000), wk =   0.0012500
        k(  315) = (   0.1794731  -0.1538401   0.0000000), wk =   0.0012500
        k(  316) = (   0.1794716  -0.1282018   0.0000000), wk =   0.0012500
        k(  317) = (   0.1794701  -0.1025636   0.0000000), wk =   0.0012500
        k(  318) = (   0.1794686  -0.0769253   0.0000000), wk =   0.0012500
        k(  319) = (   0.1794671  -0.0512871   0.0000000), wk =   0.0012500
        k(  320) = (   0.1794656  -0.0256488   0.0000000), wk =   0.0012500
        k(  321) = (   0.2051018  -0.0000121   0.0000000), wk =   0.0012500
        k(  322) = (   0.2051003   0.0256262   0.0000000), wk =   0.0012500
        k(  323) = (   0.2050988   0.0512645   0.0000000), wk =   0.0012500
        k(  324) = (   0.2050973   0.0769027   0.0000000), wk =   0.0012500
        k(  325) = (   0.2050958   0.1025410   0.0000000), wk =   0.0012500
        k(  326) = (   0.2050943   0.1281792   0.0000000), wk =   0.0012500
        k(  327) = (   0.2050928   0.1538175   0.0000000), wk =   0.0012500
        k(  328) = (   0.2050913   0.1794557   0.0000000), wk =   0.0012500
        k(  329) = (   0.2050897   0.2050940   0.0000000), wk =   0.0012500
        k(  330) = (   0.2050882   0.2307323   0.0000000), wk =   0.0012500
        k(  331) = (   0.2050867   0.2563705   0.0000000), wk =   0.0012500
        k(  332) = (   0.2050852   0.2820088   0.0000000), wk =   0.0012500
        k(  333) = (   0.2050837   0.3076470   0.0000000), wk =   0.0012500
        k(  334) = (   0.2050822   0.3332853   0.0000000), wk =   0.0012500
        k(  335) = (   0.2050807   0.3589235   0.0000000), wk =   0.0012500
        k(  336) = (   0.2050792   0.3845618   0.0000000), wk =   0.0012500
        k(  337) = (   0.2050777   0.4102000   0.0000000), wk =   0.0012500
        k(  338) = (   0.2050762   0.4358383   0.0000000), wk =   0.0012500
        k(  339) = (   0.2050747   0.4614766   0.0000000), wk =   0.0012500
        k(  340) = (   0.2050732   0.4871148   0.0000000), wk =   0.0012500
        k(  341) = (   0.2051319  -0.5127772   0.0000000), wk =   0.0012500
        k(  342) = (   0.2051304  -0.4871389   0.0000000), wk =   0.0012500
        k(  343) = (   0.2051289  -0.4615007   0.0000000), wk =   0.0012500
        k(  344) = (   0.2051274  -0.4358624   0.0000000), wk =   0.0012500
        k(  345) = (   0.2051259  -0.4102242   0.0000000), wk =   0.0012500
        k(  346) = (   0.2051244  -0.3845859   0.0000000), wk =   0.0012500
        k(  347) = (   0.2051229  -0.3589476   0.0000000), wk =   0.0012500
        k(  348) = (   0.2051214  -0.3333094   0.0000000), wk =   0.0012500
        k(  349) = (   0.2051199  -0.3076711   0.0000000), wk =   0.0012500
        k(  350) = (   0.2051184  -0.2820329   0.0000000), wk =   0.0012500
        k(  351) = (   0.2051169  -0.2563946   0.0000000), wk =   0.0012500
        k(  352) = (   0.2051154  -0.2307564   0.0000000), wk =   0.0012500
        k(  353) = (   0.2051139  -0.2051181   0.0000000), wk =   0.0012500
        k(  354) = (   0.2051124  -0.1794799   0.0000000), wk =   0.0012500
        k(  355) = (   0.2051108  -0.1538416   0.0000000), wk =   0.0012500
        k(  356) = (   0.2051093  -0.1282033   0.0000000), wk =   0.0012500
        k(  357) = (   0.2051078  -0.1025651   0.0000000), wk =   0.0012500
        k(  358) = (   0.2051063  -0.0769268   0.0000000), wk =   0.0012500
        k(  359) = (   0.2051048  -0.0512886   0.0000000), wk =   0.0012500
        k(  360) = (   0.2051033  -0.0256503   0.0000000), wk =   0.0012500
        k(  361) = (   0.2307395  -0.0000136   0.0000000), wk =   0.0012500
        k(  362) = (   0.2307380   0.0256247   0.0000000), wk =   0.0012500
        k(  363) = (   0.2307365   0.0512629   0.0000000), wk =   0.0012500
        k(  364) = (   0.2307350   0.0769012   0.0000000), wk =   0.0012500
        k(  365) = (   0.2307335   0.1025395   0.0000000), wk =   0.0012500
        k(  366) = (   0.2307320   0.1281777   0.0000000), wk =   0.0012500
        k(  367) = (   0.2307305   0.1538160   0.0000000), wk =   0.0012500
        k(  368) = (   0.2307290   0.1794542   0.0000000), wk =   0.0012500
        k(  369) = (   0.2307275   0.2050925   0.0000000), wk =   0.0012500
        k(  370) = (   0.2307260   0.2307307   0.0000000), wk =   0.0012500
        k(  371) = (   0.2307245   0.2563690   0.0000000), wk =   0.0012500
        k(  372) = (   0.2307230   0.2820073   0.0000000), wk =   0.0012500
        k(  373) = (   0.2307214   0.3076455   0.0000000), wk =   0.0012500
        k(  374) = (   0.2307199   0.3332838   0.0000000), wk =   0.0012500
        k(  375) = (   0.2307184   0.3589220   0.0000000), wk =   0.0012500
        k(  376) = (   0.2307169   0.3845603   0.0000000), wk =   0.0012500
        k(  377) = (   0.2307154   0.4101985   0.0000000), wk =   0.0012500
        k(  378) = (   0.2307139   0.4358368   0.0000000), wk =   0.0012500
        k(  379) = (   0.2307124   0.4614751   0.0000000), wk =   0.0012500
        k(  380) = (   0.2307109   0.4871133   0.0000000), wk =   0.0012500
        k(  381) = (   0.2307697  -0.5127787   0.0000000), wk =   0.0012500
        k(  382) = (   0.2307682  -0.4871404   0.0000000), wk =   0.0012500
        k(  383) = (   0.2307667  -0.4615022   0.0000000), wk =   0.0012500
        k(  384) = (   0.2307652  -0.4358639   0.0000000), wk =   0.0012500
        k(  385) = (   0.2307636  -0.4102257   0.0000000), wk =   0.0012500
        k(  386) = (   0.2307621  -0.3845874   0.0000000), wk =   0.0012500
        k(  387) = (   0.2307606  -0.3589492   0.0000000), wk =   0.0012500
        k(  388) = (   0.2307591  -0.3333109   0.0000000), wk =   0.0012500
        k(  389) = (   0.2307576  -0.3076726   0.0000000), wk =   0.0012500
        k(  390) = (   0.2307561  -0.2820344   0.0000000), wk =   0.0012500
        k(  391) = (   0.2307546  -0.2563961   0.0000000), wk =   0.0012500
        k(  392) = (   0.2307531  -0.2307579   0.0000000), wk =   0.0012500
        k(  393) = (   0.2307516  -0.2051196   0.0000000), wk =   0.0012500
        k(  394) = (   0.2307501  -0.1794814   0.0000000), wk =   0.0012500
        k(  395) = (   0.2307486  -0.1538431   0.0000000), wk =   0.0012500
        k(  396) = (   0.2307471  -0.1282048   0.0000000), wk =   0.0012500
        k(  397) = (   0.2307456  -0.1025666   0.0000000), wk =   0.0012500
        k(  398) = (   0.2307441  -0.0769283   0.0000000), wk =   0.0012500
        k(  399) = (   0.2307425  -0.0512901   0.0000000), wk =   0.0012500
        k(  400) = (   0.2307410  -0.0256518   0.0000000), wk =   0.0012500
        k(  401) = (   0.2563773  -0.0000151   0.0000000), wk =   0.0012500
        k(  402) = (   0.2563758   0.0256232   0.0000000), wk =   0.0012500
        k(  403) = (   0.2563742   0.0512614   0.0000000), wk =   0.0012500
        k(  404) = (   0.2563727   0.0768997   0.0000000), wk =   0.0012500
        k(  405) = (   0.2563712   0.1025380   0.0000000), wk =   0.0012500
        k(  406) = (   0.2563697   0.1281762   0.0000000), wk =   0.0012500
        k(  407) = (   0.2563682   0.1538145   0.0000000), wk =   0.0012500
        k(  408) = (   0.2563667   0.1794527   0.0000000), wk =   0.0012500
        k(  409) = (   0.2563652   0.2050910   0.0000000), wk =   0.0012500
        k(  410) = (   0.2563637   0.2307292   0.0000000), wk =   0.0012500
        k(  411) = (   0.2563622   0.2563675   0.0000000), wk =   0.0012500
        k(  412) = (   0.2563607   0.2820057   0.0000000), wk =   0.0012500
        k(  413) = (   0.2563592   0.3076440   0.0000000), wk =   0.0012500
        k(  414) = (   0.2563577   0.3332823   0.0000000), wk =   0.0012500
        k(  415) = (   0.2563562   0.3589205   0.0000000), wk =   0.0012500
        k(  416) = (   0.2563547   0.3845588   0.0000000), wk =   0.0012500
        k(  417) = (   0.2563531   0.4101970   0.0000000), wk =   0.0012500
        k(  418) = (   0.2563516   0.4358353   0.0000000), wk =   0.0012500
        k(  419) = (   0.2563501   0.4614735   0.0000000), wk =   0.0012500
        k(  420) = (   0.2563486   0.4871118   0.0000000), wk =   0.0012500
        k(  421) = (   0.2564074  -0.5127802   0.0000000), wk =   0.0012500
        k(  422) = (   0.2564059  -0.4871419   0.0000000), wk =   0.0012500
        k(  423) = (   0.2564044  -0.4615037   0.0000000), wk =   0.0012500
        k(  424) = (   0.2564029  -0.4358654   0.0000000), wk =   0.0012500
        k(  425) = (   0.2564014  -0.4102272   0.0000000), wk =   0.0012500
        k(  426) = (   0.2563999  -0.3845889   0.0000000), wk =   0.0012500
        k(  427) = (   0.2563984  -0.3589507   0.0000000), wk =   0.0012500
        k(  428) = (   0.2563968  -0.3333124   0.0000000), wk =   0.0012500
        k(  429) = (   0.2563953  -0.3076741   0.0000000), wk =   0.0012500
        k(  430) = (   0.2563938  -0.2820359   0.0000000), wk =   0.0012500
        k(  431) = (   0.2563923  -0.2563976   0.0000000), wk =   0.0012500
        k(  432) = (   0.2563908  -0.2307594   0.0000000), wk =   0.0012500
        k(  433) = (   0.2563893  -0.2051211   0.0000000), wk =   0.0012500
        k(  434) = (   0.2563878  -0.1794829   0.0000000), wk =   0.0012500
        k(  435) = (   0.2563863  -0.1538446   0.0000000), wk =   0.0012500
        k(  436) = (   0.2563848  -0.1282064   0.0000000), wk =   0.0012500
        k(  437) = (   0.2563833  -0.1025681   0.0000000), wk =   0.0012500
        k(  438) = (   0.2563818  -0.0769298   0.0000000), wk =   0.0012500
        k(  439) = (   0.2563803  -0.0512916   0.0000000), wk =   0.0012500
        k(  440) = (   0.2563788  -0.0256533   0.0000000), wk =   0.0012500
        k(  441) = (   0.2820150  -0.0000166   0.0000000), wk =   0.0012500
        k(  442) = (   0.2820135   0.0256217   0.0000000), wk =   0.0012500
        k(  443) = (   0.2820120   0.0512599   0.0000000), wk =   0.0012500
        k(  444) = (   0.2820105   0.0768982   0.0000000), wk =   0.0012500
        k(  445) = (   0.2820090   0.1025364   0.0000000), wk =   0.0012500
        k(  446) = (   0.2820074   0.1281747   0.0000000), wk =   0.0012500
        k(  447) = (   0.2820059   0.1538130   0.0000000), wk =   0.0012500
        k(  448) = (   0.2820044   0.1794512   0.0000000), wk =   0.0012500
        k(  449) = (   0.2820029   0.2050895   0.0000000), wk =   0.0012500
        k(  450) = (   0.2820014   0.2307277   0.0000000), wk =   0.0012500
        k(  451) = (   0.2819999   0.2563660   0.0000000), wk =   0.0012500
        k(  452) = (   0.2819984   0.2820042   0.0000000), wk =   0.0012500
        k(  453) = (   0.2819969   0.3076425   0.0000000), wk =   0.0012500
        k(  454) = (   0.2819954   0.3332808   0.0000000), wk =   0.0012500
        k(  455) = (   0.2819939   0.3589190   0.0000000), wk =   0.0012500
        k(  456) = (   0.2819924   0.3845573   0.0000000), wk =   0.0012500
        k(  457) = (   0.2819909   0.4101955   0.0000000), wk =   0.0012500
        k(  458) = (   0.2819894   0.4358338   0.0000000), wk =   0.0012500
        k(  459) = (   0.2819879   0.4614720   0.0000000), wk =   0.0012500
        k(  460) = (   0.2819863   0.4871103   0.0000000), wk =   0.0012500
        k(  461) = (   0.2820451  -0.5127817   0.0000000), wk =   0.0012500
        k(  462) = (   0.2820436  -0.4871434   0.0000000), wk =   0.0012500
        k(  463) = (   0.2820421  -0.4615052   0.0000000), wk =   0.0012500
        k(  464) = (   0.2820406  -0.4358669   0.0000000), wk =   0.0012500
        k(  465) = (   0.2820391  -0.4102287   0.0000000), wk =   0.0012500
        k(  466) = (   0.2820376  -0.3845904   0.0000000), wk =   0.0012500
        k(  467) = (   0.2820361  -0.3589522   0.0000000), wk =   0.0012500
        k(  468) = (   0.2820346  -0.3333139   0.0000000), wk =   0.0012500
        k(  469) = (   0.2820331  -0.3076757   0.0000000), wk =   0.0012500
        k(  470) = (   0.2820316  -0.2820374   0.0000000), wk =   0.0012500
        k(  471) = (   0.2820301  -0.2563991   0.0000000), wk =   0.0012500
        k(  472) = (   0.2820285  -0.2307609   0.0000000), wk =   0.0012500
        k(  473) = (   0.2820270  -0.2051226   0.0000000), wk =   0.0012500
        k(  474) = (   0.2820255  -0.1794844   0.0000000), wk =   0.0012500
        k(  475) = (   0.2820240  -0.1538461   0.0000000), wk =   0.0012500
        k(  476) = (   0.2820225  -0.1282079   0.0000000), wk =   0.0012500
        k(  477) = (   0.2820210  -0.1025696   0.0000000), wk =   0.0012500
        k(  478) = (   0.2820195  -0.0769313   0.0000000), wk =   0.0012500
        k(  479) = (   0.2820180  -0.0512931   0.0000000), wk =   0.0012500
        k(  480) = (   0.2820165  -0.0256548   0.0000000), wk =   0.0012500
        k(  481) = (   0.3076527  -0.0000181   0.0000000), wk =   0.0012500
        k(  482) = (   0.3076512   0.0256202   0.0000000), wk =   0.0012500
        k(  483) = (   0.3076497   0.0512584   0.0000000), wk =   0.0012500
        k(  484) = (   0.3076482   0.0768967   0.0000000), wk =   0.0012500
        k(  485) = (   0.3076467   0.1025349   0.0000000), wk =   0.0012500
        k(  486) = (   0.3076452   0.1281732   0.0000000), wk =   0.0012500
        k(  487) = (   0.3076437   0.1538115   0.0000000), wk =   0.0012500
        k(  488) = (   0.3076422   0.1794497   0.0000000), wk =   0.0012500
        k(  489) = (   0.3076407   0.2050880   0.0000000), wk =   0.0012500
        k(  490) = (   0.3076391   0.2307262   0.0000000), wk =   0.0012500
        k(  491) = (   0.3076376   0.2563645   0.0000000), wk =   0.0012500
        k(  492) = (   0.3076361   0.2820027   0.0000000), wk =   0.0012500
        k(  493) = (   0.3076346   0.3076410   0.0000000), wk =   0.0012500
        k(  494) = (   0.3076331   0.3332792   0.0000000), wk =   0.0012500
        k(  495) = (   0.3076316   0.3589175   0.0000000), wk =   0.0012500
        k(  496) = (   0.3076301   0.3845558   0.0000000), wk =   0.0012500
        k(  497) = (   0.3076286   0.4101940   0.0000000), wk =   0.0012500
        k(  498) = (   0.3076271   0.4358323   0.0000000), wk =   0.0012500
        k(  499) = (   0.3076256   0.4614705   0.0000000), wk =   0.0012500
        k(  500) = (   0.3076241   0.4871088   0.0000000), wk =   0.0012500
        k(  501) = (   0.3076828  -0.5127832   0.0000000), wk =   0.0012500
        k(  502) = (   0.3076813  -0.4871450   0.0000000), wk =   0.0012500
        k(  503) = (   0.3076798  -0.4615067   0.0000000), wk =   0.0012500
        k(  504) = (   0.3076783  -0.4358684   0.0000000), wk =   0.0012500
        k(  505) = (   0.3076768  -0.4102302   0.0000000), wk =   0.0012500
        k(  506) = (   0.3076753  -0.3845919   0.0000000), wk =   0.0012500
        k(  507) = (   0.3076738  -0.3589537   0.0000000), wk =   0.0012500
        k(  508) = (   0.3076723  -0.3333154   0.0000000), wk =   0.0012500
        k(  509) = (   0.3076708  -0.3076772   0.0000000), wk =   0.0012500
        k(  510) = (   0.3076693  -0.2820389   0.0000000), wk =   0.0012500
        k(  511) = (   0.3076678  -0.2564006   0.0000000), wk =   0.0012500
        k(  512) = (   0.3076663  -0.2307624   0.0000000), wk =   0.0012500
        k(  513) = (   0.3076648  -0.2051241   0.0000000), wk =   0.0012500
        k(  514) = (   0.3076633  -0.1794859   0.0000000), wk =   0.0012500
        k(  515) = (   0.3076618  -0.1538476   0.0000000), wk =   0.0012500
        k(  516) = (   0.3076602  -0.1282094   0.0000000), wk =   0.0012500
        k(  517) = (   0.3076587  -0.1025711   0.0000000), wk =   0.0012500
        k(  518) = (   0.3076572  -0.0769329   0.0000000), wk =   0.0012500
        k(  519) = (   0.3076557  -0.0512946   0.0000000), wk =   0.0012500
        k(  520) = (   0.3076542  -0.0256563   0.0000000), wk =   0.0012500
        k(  521) = (   0.3332904  -0.0000196   0.0000000), wk =   0.0012500
        k(  522) = (   0.3332889   0.0256187   0.0000000), wk =   0.0012500
        k(  523) = (   0.3332874   0.0512569   0.0000000), wk =   0.0012500
        k(  524) = (   0.3332859   0.0768952   0.0000000), wk =   0.0012500
        k(  525) = (   0.3332844   0.1025334   0.0000000), wk =   0.0012500
        k(  526) = (   0.3332829   0.1281717   0.0000000), wk =   0.0012500
        k(  527) = (   0.3332814   0.1538099   0.0000000), wk =   0.0012500
        k(  528) = (   0.3332799   0.1794482   0.0000000), wk =   0.0012500
        k(  529) = (   0.3332784   0.2050865   0.0000000), wk =   0.0012500
        k(  530) = (   0.3332769   0.2307247   0.0000000), wk =   0.0012500
        k(  531) = (   0.3332754   0.2563630   0.0000000), wk =   0.0012500
        k(  532) = (   0.3332739   0.2820012   0.0000000), wk =   0.0012500
        k(  533) = (   0.3332724   0.3076395   0.0000000), wk =   0.0012500
        k(  534) = (   0.3332708   0.3332777   0.0000000), wk =   0.0012500
        k(  535) = (   0.3332693   0.3589160   0.0000000), wk =   0.0012500
        k(  536) = (   0.3332678   0.3845543   0.0000000), wk =   0.0012500
        k(  537) = (   0.3332663   0.4101925   0.0000000), wk =   0.0012500
        k(  538) = (   0.3332648   0.4358308   0.0000000), wk =   0.0012500
        k(  539) = (   0.3332633   0.4614690   0.0000000), wk =   0.0012500
        k(  540) = (   0.3332618   0.4871073   0.0000000), wk =   0.0012500
        k(  541) = (   0.3333206  -0.5127847   0.0000000), wk =   0.0012500
        k(  542) = (   0.3333191  -0.4871465   0.0000000), wk =   0.0012500
        k(  543) = (   0.3333176  -0.4615082   0.0000000), wk =   0.0012500
        k(  544) = (   0.3333161  -0.4358699   0.0000000), wk =   0.0012500
        k(  545) = (   0.3333145  -0.4102317   0.0000000), wk =   0.0012500
        k(  546) = (   0.3333130  -0.3845934   0.0000000), wk =   0.0012500
        k(  547) = (   0.3333115  -0.3589552   0.0000000), wk =   0.0012500
        k(  548) = (   0.3333100  -0.3333169   0.0000000), wk =   0.0012500
        k(  549) = (   0.3333085  -0.3076787   0.0000000), wk =   0.0012500
        k(  550) = (   0.3333070  -0.2820404   0.0000000), wk =   0.0012500
        k(  551) = (   0.3333055  -0.2564022   0.0000000), wk =   0.0012500
        k(  552) = (   0.3333040  -0.2307639   0.0000000), wk =   0.0012500
        k(  553) = (   0.3333025  -0.2051256   0.0000000), wk =   0.0012500
        k(  554) = (   0.3333010  -0.1794874   0.0000000), wk =   0.0012500
        k(  555) = (   0.3332995  -0.1538491   0.0000000), wk =   0.0012500
        k(  556) = (   0.3332980  -0.1282109   0.0000000), wk =   0.0012500
        k(  557) = (   0.3332965  -0.1025726   0.0000000), wk =   0.0012500
        k(  558) = (   0.3332950  -0.0769344   0.0000000), wk =   0.0012500
        k(  559) = (   0.3332934  -0.0512961   0.0000000), wk =   0.0012500
        k(  560) = (   0.3332919  -0.0256578   0.0000000), wk =   0.0012500
        k(  561) = (   0.3589282  -0.0000211   0.0000000), wk =   0.0012500
        k(  562) = (   0.3589267   0.0256172   0.0000000), wk =   0.0012500
        k(  563) = (   0.3589251   0.0512554   0.0000000), wk =   0.0012500
        k(  564) = (   0.3589236   0.0768937   0.0000000), wk =   0.0012500
        k(  565) = (   0.3589221   0.1025319   0.0000000), wk =   0.0012500
        k(  566) = (   0.3589206   0.1281702   0.0000000), wk =   0.0012500
        k(  567) = (   0.3589191   0.1538084   0.0000000), wk =   0.0012500
        k(  568) = (   0.3589176   0.1794467   0.0000000), wk =   0.0012500
        k(  569) = (   0.3589161   0.2050850   0.0000000), wk =   0.0012500
        k(  570) = (   0.3589146   0.2307232   0.0000000), wk =   0.0012500
        k(  571) = (   0.3589131   0.2563615   0.0000000), wk =   0.0012500
        k(  572) = (   0.3589116   0.2819997   0.0000000), wk =   0.0012500
        k(  573) = (   0.3589101   0.3076380   0.0000000), wk =   0.0012500
        k(  574) = (   0.3589086   0.3332762   0.0000000), wk =   0.0012500
        k(  575) = (   0.3589071   0.3589145   0.0000000), wk =   0.0012500
        k(  576) = (   0.3589056   0.3845527   0.0000000), wk =   0.0012500
        k(  577) = (   0.3589040   0.4101910   0.0000000), wk =   0.0012500
        k(  578) = (   0.3589025   0.4358293   0.0000000), wk =   0.0012500
        k(  579) = (   0.3589010   0.4614675   0.0000000), wk =   0.0012500
        k(  580) = (   0.3588995   0.4871058   0.0000000), wk =   0.0012500
        k(  581) = (   0.3589583  -0.5127862   0.0000000), wk =   0.0012500
        k(  582) = (   0.3589568  -0.4871480   0.0000000), wk =   0.0012500
        k(  583) = (   0.3589553  -0.4615097   0.0000000), wk =   0.0012500
        k(  584) = (   0.3589538  -0.4358715   0.0000000), wk =   0.0012500
        k(  585) = (   0.3589523  -0.4102332   0.0000000), wk =   0.0012500
        k(  586) = (   0.3589508  -0.3845949   0.0000000), wk =   0.0012500
        k(  587) = (   0.3589493  -0.3589567   0.0000000), wk =   0.0012500
        k(  588) = (   0.3589478  -0.3333184   0.0000000), wk =   0.0012500
        k(  589) = (   0.3589462  -0.3076802   0.0000000), wk =   0.0012500
        k(  590) = (   0.3589447  -0.2820419   0.0000000), wk =   0.0012500
        k(  591) = (   0.3589432  -0.2564037   0.0000000), wk =   0.0012500
        k(  592) = (   0.3589417  -0.2307654   0.0000000), wk =   0.0012500
        k(  593) = (   0.3589402  -0.2051271   0.0000000), wk =   0.0012500
        k(  594) = (   0.3589387  -0.1794889   0.0000000), wk =   0.0012500
        k(  595) = (   0.3589372  -0.1538506   0.0000000), wk =   0.0012500
        k(  596) = (   0.3589357  -0.1282124   0.0000000), wk =   0.0012500
        k(  597) = (   0.3589342  -0.1025741   0.0000000), wk =   0.0012500
        k(  598) = (   0.3589327  -0.0769359   0.0000000), wk =   0.0012500
        k(  599) = (   0.3589312  -0.0512976   0.0000000), wk =   0.0012500
        k(  600) = (   0.3589297  -0.0256594   0.0000000), wk =   0.0012500
        k(  601) = (   0.3845659  -0.0000226   0.0000000), wk =   0.0012500
        k(  602) = (   0.3845644   0.0256157   0.0000000), wk =   0.0012500
        k(  603) = (   0.3845629   0.0512539   0.0000000), wk =   0.0012500
        k(  604) = (   0.3845614   0.0768922   0.0000000), wk =   0.0012500
        k(  605) = (   0.3845599   0.1025304   0.0000000), wk =   0.0012500
        k(  606) = (   0.3845584   0.1281687   0.0000000), wk =   0.0012500
        k(  607) = (   0.3845568   0.1538069   0.0000000), wk =   0.0012500
        k(  608) = (   0.3845553   0.1794452   0.0000000), wk =   0.0012500
        k(  609) = (   0.3845538   0.2050834   0.0000000), wk =   0.0012500
        k(  610) = (   0.3845523   0.2307217   0.0000000), wk =   0.0012500
        k(  611) = (   0.3845508   0.2563600   0.0000000), wk =   0.0012500
        k(  612) = (   0.3845493   0.2819982   0.0000000), wk =   0.0012500
        k(  613) = (   0.3845478   0.3076365   0.0000000), wk =   0.0012500
        k(  614) = (   0.3845463   0.3332747   0.0000000), wk =   0.0012500
        k(  615) = (   0.3845448   0.3589130   0.0000000), wk =   0.0012500
        k(  616) = (   0.3845433   0.3845512   0.0000000), wk =   0.0012500
        k(  617) = (   0.3845418   0.4101895   0.0000000), wk =   0.0012500
        k(  618) = (   0.3845403   0.4358278   0.0000000), wk =   0.0012500
        k(  619) = (   0.3845388   0.4614660   0.0000000), wk =   0.0012500
        k(  620) = (   0.3845373   0.4871043   0.0000000), wk =   0.0012500
        k(  621) = (   0.3845960  -0.5127877   0.0000000), wk =   0.0012500
        k(  622) = (   0.3845945  -0.4871495   0.0000000), wk =   0.0012500
        k(  623) = (   0.3845930  -0.4615112   0.0000000), wk =   0.0012500
        k(  624) = (   0.3845915  -0.4358730   0.0000000), wk =   0.0012500
        k(  625) = (   0.3845900  -0.4102347   0.0000000), wk =   0.0012500
        k(  626) = (   0.3845885  -0.3845964   0.0000000), wk =   0.0012500
        k(  627) = (   0.3845870  -0.3589582   0.0000000), wk =   0.0012500
        k(  628) = (   0.3845855  -0.3333199   0.0000000), wk =   0.0012500
        k(  629) = (   0.3845840  -0.3076817   0.0000000), wk =   0.0012500
        k(  630) = (   0.3845825  -0.2820434   0.0000000), wk =   0.0012500
        k(  631) = (   0.3845810  -0.2564052   0.0000000), wk =   0.0012500
        k(  632) = (   0.3845794  -0.2307669   0.0000000), wk =   0.0012500
        k(  633) = (   0.3845779  -0.2051287   0.0000000), wk =   0.0012500
        k(  634) = (   0.3845764  -0.1794904   0.0000000), wk =   0.0012500
        k(  635) = (   0.3845749  -0.1538521   0.0000000), wk =   0.0012500
        k(  636) = (   0.3845734  -0.1282139   0.0000000), wk =   0.0012500
        k(  637) = (   0.3845719  -0.1025756   0.0000000), wk =   0.0012500
        k(  638) = (   0.3845704  -0.0769374   0.0000000), wk =   0.0012500
        k(  639) = (   0.3845689  -0.0512991   0.0000000), wk =   0.0012500
        k(  640) = (   0.3845674  -0.0256609   0.0000000), wk =   0.0012500
        k(  641) = (   0.4102036  -0.0000241   0.0000000), wk =   0.0012500
        k(  642) = (   0.4102021   0.0256141   0.0000000), wk =   0.0012500
        k(  643) = (   0.4102006   0.0512524   0.0000000), wk =   0.0012500
        k(  644) = (   0.4101991   0.0768907   0.0000000), wk =   0.0012500
        k(  645) = (   0.4101976   0.1025289   0.0000000), wk =   0.0012500
        k(  646) = (   0.4101961   0.1281672   0.0000000), wk =   0.0012500
        k(  647) = (   0.4101946   0.1538054   0.0000000), wk =   0.0012500
        k(  648) = (   0.4101931   0.1794437   0.0000000), wk =   0.0012500
        k(  649) = (   0.4101916   0.2050819   0.0000000), wk =   0.0012500
        k(  650) = (   0.4101900   0.2307202   0.0000000), wk =   0.0012500
        k(  651) = (   0.4101885   0.2563585   0.0000000), wk =   0.0012500
        k(  652) = (   0.4101870   0.2819967   0.0000000), wk =   0.0012500
        k(  653) = (   0.4101855   0.3076350   0.0000000), wk =   0.0012500
        k(  654) = (   0.4101840   0.3332732   0.0000000), wk =   0.0012500
        k(  655) = (   0.4101825   0.3589115   0.0000000), wk =   0.0012500
        k(  656) = (   0.4101810   0.3845497   0.0000000), wk =   0.0012500
        k(  657) = (   0.4101795   0.4101880   0.0000000), wk =   0.0012500
        k(  658) = (   0.4101780   0.4358262   0.0000000), wk =   0.0012500
        k(  659) = (   0.4101765   0.4614645   0.0000000), wk =   0.0012500
        k(  660) = (   0.4101750   0.4871028   0.0000000), wk =   0.0012500
        k(  661) = (   0.4102338  -0.5127892   0.0000000), wk =   0.0012500
        k(  662) = (   0.4102322  -0.4871510   0.0000000), wk =   0.0012500
        k(  663) = (   0.4102307  -0.4615127   0.0000000), wk =   0.0012500
        k(  664) = (   0.4102292  -0.4358745   0.0000000), wk =   0.0012500
        k(  665) = (   0.4102277  -0.4102362   0.0000000), wk =   0.0012500
        k(  666) = (   0.4102262  -0.3845980   0.0000000), wk =   0.0012500
        k(  667) = (   0.4102247  -0.3589597   0.0000000), wk =   0.0012500
        k(  668) = (   0.4102232  -0.3333214   0.0000000), wk =   0.0012500
        k(  669) = (   0.4102217  -0.3076832   0.0000000), wk =   0.0012500
        k(  670) = (   0.4102202  -0.2820449   0.0000000), wk =   0.0012500
        k(  671) = (   0.4102187  -0.2564067   0.0000000), wk =   0.0012500
        k(  672) = (   0.4102172  -0.2307684   0.0000000), wk =   0.0012500
        k(  673) = (   0.4102157  -0.2051302   0.0000000), wk =   0.0012500
        k(  674) = (   0.4102142  -0.1794919   0.0000000), wk =   0.0012500
        k(  675) = (   0.4102127  -0.1538537   0.0000000), wk =   0.0012500
        k(  676) = (   0.4102111  -0.1282154   0.0000000), wk =   0.0012500
        k(  677) = (   0.4102096  -0.1025771   0.0000000), wk =   0.0012500
        k(  678) = (   0.4102081  -0.0769389   0.0000000), wk =   0.0012500
        k(  679) = (   0.4102066  -0.0513006   0.0000000), wk =   0.0012500
        k(  680) = (   0.4102051  -0.0256624   0.0000000), wk =   0.0012500
        k(  681) = (   0.4358413  -0.0000256   0.0000000), wk =   0.0012500
        k(  682) = (   0.4358398   0.0256126   0.0000000), wk =   0.0012500
        k(  683) = (   0.4358383   0.0512509   0.0000000), wk =   0.0012500
        k(  684) = (   0.4358368   0.0768891   0.0000000), wk =   0.0012500
        k(  685) = (   0.4358353   0.1025274   0.0000000), wk =   0.0012500
        k(  686) = (   0.4358338   0.1281657   0.0000000), wk =   0.0012500
        k(  687) = (   0.4358323   0.1538039   0.0000000), wk =   0.0012500
        k(  688) = (   0.4358308   0.1794422   0.0000000), wk =   0.0012500
        k(  689) = (   0.4358293   0.2050804   0.0000000), wk =   0.0012500
        k(  690) = (   0.4358278   0.2307187   0.0000000), wk =   0.0012500
        k(  691) = (   0.4358263   0.2563569   0.0000000), wk =   0.0012500
        k(  692) = (   0.4358248   0.2819952   0.0000000), wk =   0.0012500
        k(  693) = (   0.4358233   0.3076335   0.0000000), wk =   0.0012500
        k(  694) = (   0.4358217   0.3332717   0.0000000), wk =   0.0012500
        k(  695) = (   0.4358202   0.3589100   0.0000000), wk =   0.0012500
        k(  696) = (   0.4358187   0.3845482   0.0000000), wk =   0.0012500
        k(  697) = (   0.4358172   0.4101865   0.0000000), wk =   0.0012500
        k(  698) = (   0.4358157   0.4358247   0.0000000), wk =   0.0012500
        k(  699) = (   0.4358142   0.4614630   0.0000000), wk =   0.0012500
        k(  700) = (   0.4358127   0.4871013   0.0000000), wk =   0.0012500
        k(  701) = (   0.4358715  -0.5127907   0.0000000), wk =   0.0012500
        k(  702) = (   0.4358700  -0.4871525   0.0000000), wk =   0.0012500
        k(  703) = (   0.4358685  -0.4615142   0.0000000), wk =   0.0012500
        k(  704) = (   0.4358670  -0.4358760   0.0000000), wk =   0.0012500
        k(  705) = (   0.4358655  -0.4102377   0.0000000), wk =   0.0012500
        k(  706) = (   0.4358639  -0.3845995   0.0000000), wk =   0.0012500
        k(  707) = (   0.4358624  -0.3589612   0.0000000), wk =   0.0012500
        k(  708) = (   0.4358609  -0.3333230   0.0000000), wk =   0.0012500
        k(  709) = (   0.4358594  -0.3076847   0.0000000), wk =   0.0012500
        k(  710) = (   0.4358579  -0.2820464   0.0000000), wk =   0.0012500
        k(  711) = (   0.4358564  -0.2564082   0.0000000), wk =   0.0012500
        k(  712) = (   0.4358549  -0.2307699   0.0000000), wk =   0.0012500
        k(  713) = (   0.4358534  -0.2051317   0.0000000), wk =   0.0012500
        k(  714) = (   0.4358519  -0.1794934   0.0000000), wk =   0.0012500
        k(  715) = (   0.4358504  -0.1538552   0.0000000), wk =   0.0012500
        k(  716) = (   0.4358489  -0.1282169   0.0000000), wk =   0.0012500
        k(  717) = (   0.4358474  -0.1025786   0.0000000), wk =   0.0012500
        k(  718) = (   0.4358459  -0.0769404   0.0000000), wk =   0.0012500
        k(  719) = (   0.4358444  -0.0513021   0.0000000), wk =   0.0012500
        k(  720) = (   0.4358428  -0.0256639   0.0000000), wk =   0.0012500
        k(  721) = (   0.4614791  -0.0000271   0.0000000), wk =   0.0012500
        k(  722) = (   0.4614776   0.0256111   0.0000000), wk =   0.0012500
        k(  723) = (   0.4614760   0.0512494   0.0000000), wk =   0.0012500
        k(  724) = (   0.4614745   0.0768876   0.0000000), wk =   0.0012500
        k(  725) = (   0.4614730   0.1025259   0.0000000), wk =   0.0012500
        k(  726) = (   0.4614715   0.1281642   0.0000000), wk =   0.0012500
        k(  727) = (   0.4614700   0.1538024   0.0000000), wk =   0.0012500
        k(  728) = (   0.4614685   0.1794407   0.0000000), wk =   0.0012500
        k(  729) = (   0.4614670   0.2050789   0.0000000), wk =   0.0012500
        k(  730) = (   0.4614655   0.2307172   0.0000000), wk =   0.0012500
        k(  731) = (   0.4614640   0.2563554   0.0000000), wk =   0.0012500
        k(  732) = (   0.4614625   0.2819937   0.0000000), wk =   0.0012500
        k(  733) = (   0.4614610   0.3076319   0.0000000), wk =   0.0012500
        k(  734) = (   0.4614595   0.3332702   0.0000000), wk =   0.0012500
        k(  735) = (   0.4614580   0.3589085   0.0000000), wk =   0.0012500
        k(  736) = (   0.4614565   0.3845467   0.0000000), wk =   0.0012500
        k(  737) = (   0.4614550   0.4101850   0.0000000), wk =   0.0012500
        k(  738) = (   0.4614534   0.4358232   0.0000000), wk =   0.0012500
        k(  739) = (   0.4614519   0.4614615   0.0000000), wk =   0.0012500
        k(  740) = (   0.4614504   0.4870997   0.0000000), wk =   0.0012500
        k(  741) = (   0.4615092  -0.5127923   0.0000000), wk =   0.0012500
        k(  742) = (   0.4615077  -0.4871540   0.0000000), wk =   0.0012500
        k(  743) = (   0.4615062  -0.4615157   0.0000000), wk =   0.0012500
        k(  744) = (   0.4615047  -0.4358775   0.0000000), wk =   0.0012500
        k(  745) = (   0.4615032  -0.4102392   0.0000000), wk =   0.0012500
        k(  746) = (   0.4615017  -0.3846010   0.0000000), wk =   0.0012500
        k(  747) = (   0.4615002  -0.3589627   0.0000000), wk =   0.0012500
        k(  748) = (   0.4614987  -0.3333245   0.0000000), wk =   0.0012500
        k(  749) = (   0.4614971  -0.3076862   0.0000000), wk =   0.0012500
        k(  750) = (   0.4614956  -0.2820479   0.0000000), wk =   0.0012500
        k(  751) = (   0.4614941  -0.2564097   0.0000000), wk =   0.0012500
        k(  752) = (   0.4614926  -0.2307714   0.0000000), wk =   0.0012500
        k(  753) = (   0.4614911  -0.2051332   0.0000000), wk =   0.0012500
        k(  754) = (   0.4614896  -0.1794949   0.0000000), wk =   0.0012500
        k(  755) = (   0.4614881  -0.1538567   0.0000000), wk =   0.0012500
        k(  756) = (   0.4614866  -0.1282184   0.0000000), wk =   0.0012500
        k(  757) = (   0.4614851  -0.1025802   0.0000000), wk =   0.0012500
        k(  758) = (   0.4614836  -0.0769419   0.0000000), wk =   0.0012500
        k(  759) = (   0.4614821  -0.0513036   0.0000000), wk =   0.0012500
        k(  760) = (   0.4614806  -0.0256654   0.0000000), wk =   0.0012500
        k(  761) = (   0.4871168  -0.0000286   0.0000000), wk =   0.0012500
        k(  762) = (   0.4871153   0.0256096   0.0000000), wk =   0.0012500
        k(  763) = (   0.4871138   0.0512479   0.0000000), wk =   0.0012500
        k(  764) = (   0.4871123   0.0768861   0.0000000), wk =   0.0012500
        k(  765) = (   0.4871108   0.1025244   0.0000000), wk =   0.0012500
        k(  766) = (   0.4871093   0.1281626   0.0000000), wk =   0.0012500
        k(  767) = (   0.4871077   0.1538009   0.0000000), wk =   0.0012500
        k(  768) = (   0.4871062   0.1794392   0.0000000), wk =   0.0012500
        k(  769) = (   0.4871047   0.2050774   0.0000000), wk =   0.0012500
        k(  770) = (   0.4871032   0.2307157   0.0000000), wk =   0.0012500
        k(  771) = (   0.4871017   0.2563539   0.0000000), wk =   0.0012500
        k(  772) = (   0.4871002   0.2819922   0.0000000), wk =   0.0012500
        k(  773) = (   0.4870987   0.3076304   0.0000000), wk =   0.0012500
        k(  774) = (   0.4870972   0.3332687   0.0000000), wk =   0.0012500
        k(  775) = (   0.4870957   0.3589070   0.0000000), wk =   0.0012500
        k(  776) = (   0.4870942   0.3845452   0.0000000), wk =   0.0012500
        k(  777) = (   0.4870927   0.4101835   0.0000000), wk =   0.0012500
        k(  778) = (   0.4870912   0.4358217   0.0000000), wk =   0.0012500
        k(  779) = (   0.4870897   0.4614600   0.0000000), wk =   0.0012500
        k(  780) = (   0.4870882   0.4870982   0.0000000), wk =   0.0012500
        k(  781) = (   0.4871469  -0.5127938   0.0000000), wk =   0.0012500
        k(  782) = (   0.4871454  -0.4871555   0.0000000), wk =   0.0012500
        k(  783) = (   0.4871439  -0.4615172   0.0000000), wk =   0.0012500
        k(  784) = (   0.4871424  -0.4358790   0.0000000), wk =   0.0012500
        k(  785) = (   0.4871409  -0.4102407   0.0000000), wk =   0.0012500
        k(  786) = (   0.4871394  -0.3846025   0.0000000), wk =   0.0012500
        k(  787) = (   0.4871379  -0.3589642   0.0000000), wk =   0.0012500
        k(  788) = (   0.4871364  -0.3333260   0.0000000), wk =   0.0012500
        k(  789) = (   0.4871349  -0.3076877   0.0000000), wk =   0.0012500
        k(  790) = (   0.4871334  -0.2820495   0.0000000), wk =   0.0012500
        k(  791) = (   0.4871319  -0.2564112   0.0000000), wk =   0.0012500
        k(  792) = (   0.4871304  -0.2307729   0.0000000), wk =   0.0012500
        k(  793) = (   0.4871288  -0.2051347   0.0000000), wk =   0.0012500
        k(  794) = (   0.4871273  -0.1794964   0.0000000), wk =   0.0012500
        k(  795) = (   0.4871258  -0.1538582   0.0000000), wk =   0.0012500
        k(  796) = (   0.4871243  -0.1282199   0.0000000), wk =   0.0012500
        k(  797) = (   0.4871228  -0.1025817   0.0000000), wk =   0.0012500
        k(  798) = (   0.4871213  -0.0769434   0.0000000), wk =   0.0012500
        k(  799) = (   0.4871198  -0.0513051   0.0000000), wk =   0.0012500
        k(  800) = (   0.4871183  -0.0256669   0.0000000), wk =   0.0012500
        k(  801) = (  -0.5127545   0.0000301   0.0000000), wk =   0.0012500
        k(  802) = (  -0.5127560   0.0256684   0.0000000), wk =   0.0012500
        k(  803) = (  -0.5127575   0.0513067   0.0000000), wk =   0.0012500
        k(  804) = (  -0.5127590   0.0769449   0.0000000), wk =   0.0012500
        k(  805) = (  -0.5127605   0.1025832   0.0000000), wk =   0.0012500
        k(  806) = (  -0.5127621   0.1282214   0.0000000), wk =   0.0012500
        k(  807) = (  -0.5127636   0.1538597   0.0000000), wk =   0.0012500
        k(  808) = (  -0.5127651   0.1794979   0.0000000), wk =   0.0012500
        k(  809) = (  -0.5127666   0.2051362   0.0000000), wk =   0.0012500
        k(  810) = (  -0.5127681   0.2307744   0.0000000), wk =   0.0012500
        k(  811) = (  -0.5127696   0.2564127   0.0000000), wk =   0.0012500
        k(  812) = (  -0.5127711   0.2820510   0.0000000), wk =   0.0012500
        k(  813) = (  -0.5127726   0.3076892   0.0000000), wk =   0.0012500
        k(  814) = (  -0.5127741   0.3333275   0.0000000), wk =   0.0012500
        k(  815) = (  -0.5127756   0.3589657   0.0000000), wk =   0.0012500
        k(  816) = (  -0.5127771   0.3846040   0.0000000), wk =   0.0012500
        k(  817) = (  -0.5127786   0.4102422   0.0000000), wk =   0.0012500
        k(  818) = (  -0.5127801   0.4358805   0.0000000), wk =   0.0012500
        k(  819) = (  -0.5127816   0.4615188   0.0000000), wk =   0.0012500
        k(  820) = (  -0.5127831   0.4871570   0.0000000), wk =   0.0012500
        k(  821) = (  -0.5127244  -0.5127350   0.0000000), wk =   0.0012500
        k(  822) = (  -0.5127259  -0.4870967   0.0000000), wk =   0.0012500
        k(  823) = (  -0.5127274  -0.4614585   0.0000000), wk =   0.0012500
        k(  824) = (  -0.5127289  -0.4358202   0.0000000), wk =   0.0012500
        k(  825) = (  -0.5127304  -0.4101820   0.0000000), wk =   0.0012500
        k(  826) = (  -0.5127319  -0.3845437   0.0000000), wk =   0.0012500
        k(  827) = (  -0.5127334  -0.3589054   0.0000000), wk =   0.0012500
        k(  828) = (  -0.5127349  -0.3332672   0.0000000), wk =   0.0012500
        k(  829) = (  -0.5127364  -0.3076289   0.0000000), wk =   0.0012500
        k(  830) = (  -0.5127379  -0.2819907   0.0000000), wk =   0.0012500
        k(  831) = (  -0.5127394  -0.2563524   0.0000000), wk =   0.0012500
        k(  832) = (  -0.5127410  -0.2307142   0.0000000), wk =   0.0012500
        k(  833) = (  -0.5127425  -0.2050759   0.0000000), wk =   0.0012500
        k(  834) = (  -0.5127440  -0.1794377   0.0000000), wk =   0.0012500
        k(  835) = (  -0.5127455  -0.1537994   0.0000000), wk =   0.0012500
        k(  836) = (  -0.5127470  -0.1281611   0.0000000), wk =   0.0012500
        k(  837) = (  -0.5127485  -0.1025229   0.0000000), wk =   0.0012500
        k(  838) = (  -0.5127500  -0.0768846   0.0000000), wk =   0.0012500
        k(  839) = (  -0.5127515  -0.0512464   0.0000000), wk =   0.0012500
        k(  840) = (  -0.5127530  -0.0256081   0.0000000), wk =   0.0012500
        k(  841) = (  -0.4871168   0.0000286   0.0000000), wk =   0.0012500
        k(  842) = (  -0.4871183   0.0256669   0.0000000), wk =   0.0012500
        k(  843) = (  -0.4871198   0.0513051   0.0000000), wk =   0.0012500
        k(  844) = (  -0.4871213   0.0769434   0.0000000), wk =   0.0012500
        k(  845) = (  -0.4871228   0.1025817   0.0000000), wk =   0.0012500
        k(  846) = (  -0.4871243   0.1282199   0.0000000), wk =   0.0012500
        k(  847) = (  -0.4871258   0.1538582   0.0000000), wk =   0.0012500
        k(  848) = (  -0.4871273   0.1794964   0.0000000), wk =   0.0012500
        k(  849) = (  -0.4871288   0.2051347   0.0000000), wk =   0.0012500
        k(  850) = (  -0.4871304   0.2307729   0.0000000), wk =   0.0012500
        k(  851) = (  -0.4871319   0.2564112   0.0000000), wk =   0.0012500
        k(  852) = (  -0.4871334   0.2820495   0.0000000), wk =   0.0012500
        k(  853) = (  -0.4871349   0.3076877   0.0000000), wk =   0.0012500
        k(  854) = (  -0.4871364   0.3333260   0.0000000), wk =   0.0012500
        k(  855) = (  -0.4871379   0.3589642   0.0000000), wk =   0.0012500
        k(  856) = (  -0.4871394   0.3846025   0.0000000), wk =   0.0012500
        k(  857) = (  -0.4871409   0.4102407   0.0000000), wk =   0.0012500
        k(  858) = (  -0.4871424   0.4358790   0.0000000), wk =   0.0012500
        k(  859) = (  -0.4871439   0.4615172   0.0000000), wk =   0.0012500
        k(  860) = (  -0.4871454   0.4871555   0.0000000), wk =   0.0012500
        k(  861) = (  -0.4870866  -0.5127365   0.0000000), wk =   0.0012500
        k(  862) = (  -0.4870882  -0.4870982   0.0000000), wk =   0.0012500
        k(  863) = (  -0.4870897  -0.4614600   0.0000000), wk =   0.0012500
        k(  864) = (  -0.4870912  -0.4358217   0.0000000), wk =   0.0012500
        k(  865) = (  -0.4870927  -0.4101835   0.0000000), wk =   0.0012500
        k(  866) = (  -0.4870942  -0.3845452   0.0000000), wk =   0.0012500
        k(  867) = (  -0.4870957  -0.3589070   0.0000000), wk =   0.0012500
        k(  868) = (  -0.4870972  -0.3332687   0.0000000), wk =   0.0012500
        k(  869) = (  -0.4870987  -0.3076304   0.0000000), wk =   0.0012500
        k(  870) = (  -0.4871002  -0.2819922   0.0000000), wk =   0.0012500
        k(  871) = (  -0.4871017  -0.2563539   0.0000000), wk =   0.0012500
        k(  872) = (  -0.4871032  -0.2307157   0.0000000), wk =   0.0012500
        k(  873) = (  -0.4871047  -0.2050774   0.0000000), wk =   0.0012500
        k(  874) = (  -0.4871062  -0.1794392   0.0000000), wk =   0.0012500
        k(  875) = (  -0.4871077  -0.1538009   0.0000000), wk =   0.0012500
        k(  876) = (  -0.4871093  -0.1281626   0.0000000), wk =   0.0012500
        k(  877) = (  -0.4871108  -0.1025244   0.0000000), wk =   0.0012500
        k(  878) = (  -0.4871123  -0.0768861   0.0000000), wk =   0.0012500
        k(  879) = (  -0.4871138  -0.0512479   0.0000000), wk =   0.0012500
        k(  880) = (  -0.4871153  -0.0256096   0.0000000), wk =   0.0012500
        k(  881) = (  -0.4614791   0.0000271   0.0000000), wk =   0.0012500
        k(  882) = (  -0.4614806   0.0256654   0.0000000), wk =   0.0012500
        k(  883) = (  -0.4614821   0.0513036   0.0000000), wk =   0.0012500
        k(  884) = (  -0.4614836   0.0769419   0.0000000), wk =   0.0012500
        k(  885) = (  -0.4614851   0.1025802   0.0000000), wk =   0.0012500
        k(  886) = (  -0.4614866   0.1282184   0.0000000), wk =   0.0012500
        k(  887) = (  -0.4614881   0.1538567   0.0000000), wk =   0.0012500
        k(  888) = (  -0.4614896   0.1794949   0.0000000), wk =   0.0012500
        k(  889) = (  -0.4614911   0.2051332   0.0000000), wk =   0.0012500
        k(  890) = (  -0.4614926   0.2307714   0.0000000), wk =   0.0012500
        k(  891) = (  -0.4614941   0.2564097   0.0000000), wk =   0.0012500
        k(  892) = (  -0.4614956   0.2820479   0.0000000), wk =   0.0012500
        k(  893) = (  -0.4614971   0.3076862   0.0000000), wk =   0.0012500
        k(  894) = (  -0.4614987   0.3333245   0.0000000), wk =   0.0012500
        k(  895) = (  -0.4615002   0.3589627   0.0000000), wk =   0.0012500
        k(  896) = (  -0.4615017   0.3846010   0.0000000), wk =   0.0012500
        k(  897) = (  -0.4615032   0.4102392   0.0000000), wk =   0.0012500
        k(  898) = (  -0.4615047   0.4358775   0.0000000), wk =   0.0012500
        k(  899) = (  -0.4615062   0.4615157   0.0000000), wk =   0.0012500
        k(  900) = (  -0.4615077   0.4871540   0.0000000), wk =   0.0012500
        k(  901) = (  -0.4614489  -0.5127380   0.0000000), wk =   0.0012500
        k(  902) = (  -0.4614504  -0.4870997   0.0000000), wk =   0.0012500
        k(  903) = (  -0.4614519  -0.4614615   0.0000000), wk =   0.0012500
        k(  904) = (  -0.4614534  -0.4358232   0.0000000), wk =   0.0012500
        k(  905) = (  -0.4614550  -0.4101850   0.0000000), wk =   0.0012500
        k(  906) = (  -0.4614565  -0.3845467   0.0000000), wk =   0.0012500
        k(  907) = (  -0.4614580  -0.3589085   0.0000000), wk =   0.0012500
        k(  908) = (  -0.4614595  -0.3332702   0.0000000), wk =   0.0012500
        k(  909) = (  -0.4614610  -0.3076319   0.0000000), wk =   0.0012500
        k(  910) = (  -0.4614625  -0.2819937   0.0000000), wk =   0.0012500
        k(  911) = (  -0.4614640  -0.2563554   0.0000000), wk =   0.0012500
        k(  912) = (  -0.4614655  -0.2307172   0.0000000), wk =   0.0012500
        k(  913) = (  -0.4614670  -0.2050789   0.0000000), wk =   0.0012500
        k(  914) = (  -0.4614685  -0.1794407   0.0000000), wk =   0.0012500
        k(  915) = (  -0.4614700  -0.1538024   0.0000000), wk =   0.0012500
        k(  916) = (  -0.4614715  -0.1281642   0.0000000), wk =   0.0012500
        k(  917) = (  -0.4614730  -0.1025259   0.0000000), wk =   0.0012500
        k(  918) = (  -0.4614745  -0.0768876   0.0000000), wk =   0.0012500
        k(  919) = (  -0.4614760  -0.0512494   0.0000000), wk =   0.0012500
        k(  920) = (  -0.4614776  -0.0256111   0.0000000), wk =   0.0012500
        k(  921) = (  -0.4358413   0.0000256   0.0000000), wk =   0.0012500
        k(  922) = (  -0.4358428   0.0256639   0.0000000), wk =   0.0012500
        k(  923) = (  -0.4358444   0.0513021   0.0000000), wk =   0.0012500
        k(  924) = (  -0.4358459   0.0769404   0.0000000), wk =   0.0012500
        k(  925) = (  -0.4358474   0.1025786   0.0000000), wk =   0.0012500
        k(  926) = (  -0.4358489   0.1282169   0.0000000), wk =   0.0012500
        k(  927) = (  -0.4358504   0.1538552   0.0000000), wk =   0.0012500
        k(  928) = (  -0.4358519   0.1794934   0.0000000), wk =   0.0012500
        k(  929) = (  -0.4358534   0.2051317   0.0000000), wk =   0.0012500
        k(  930) = (  -0.4358549   0.2307699   0.0000000), wk =   0.0012500
        k(  931) = (  -0.4358564   0.2564082   0.0000000), wk =   0.0012500
        k(  932) = (  -0.4358579   0.2820464   0.0000000), wk =   0.0012500
        k(  933) = (  -0.4358594   0.3076847   0.0000000), wk =   0.0012500
        k(  934) = (  -0.4358609   0.3333230   0.0000000), wk =   0.0012500
        k(  935) = (  -0.4358624   0.3589612   0.0000000), wk =   0.0012500
        k(  936) = (  -0.4358639   0.3845995   0.0000000), wk =   0.0012500
        k(  937) = (  -0.4358655   0.4102377   0.0000000), wk =   0.0012500
        k(  938) = (  -0.4358670   0.4358760   0.0000000), wk =   0.0012500
        k(  939) = (  -0.4358685   0.4615142   0.0000000), wk =   0.0012500
        k(  940) = (  -0.4358700   0.4871525   0.0000000), wk =   0.0012500
        k(  941) = (  -0.4358112  -0.5127395   0.0000000), wk =   0.0012500
        k(  942) = (  -0.4358127  -0.4871013   0.0000000), wk =   0.0012500
        k(  943) = (  -0.4358142  -0.4614630   0.0000000), wk =   0.0012500
        k(  944) = (  -0.4358157  -0.4358247   0.0000000), wk =   0.0012500
        k(  945) = (  -0.4358172  -0.4101865   0.0000000), wk =   0.0012500
        k(  946) = (  -0.4358187  -0.3845482   0.0000000), wk =   0.0012500
        k(  947) = (  -0.4358202  -0.3589100   0.0000000), wk =   0.0012500
        k(  948) = (  -0.4358217  -0.3332717   0.0000000), wk =   0.0012500
        k(  949) = (  -0.4358233  -0.3076335   0.0000000), wk =   0.0012500
        k(  950) = (  -0.4358248  -0.2819952   0.0000000), wk =   0.0012500
        k(  951) = (  -0.4358263  -0.2563569   0.0000000), wk =   0.0012500
        k(  952) = (  -0.4358278  -0.2307187   0.0000000), wk =   0.0012500
        k(  953) = (  -0.4358293  -0.2050804   0.0000000), wk =   0.0012500
        k(  954) = (  -0.4358308  -0.1794422   0.0000000), wk =   0.0012500
        k(  955) = (  -0.4358323  -0.1538039   0.0000000), wk =   0.0012500
        k(  956) = (  -0.4358338  -0.1281657   0.0000000), wk =   0.0012500
        k(  957) = (  -0.4358353  -0.1025274   0.0000000), wk =   0.0012500
        k(  958) = (  -0.4358368  -0.0768891   0.0000000), wk =   0.0012500
        k(  959) = (  -0.4358383  -0.0512509   0.0000000), wk =   0.0012500
        k(  960) = (  -0.4358398  -0.0256126   0.0000000), wk =   0.0012500
        k(  961) = (  -0.4102036   0.0000241   0.0000000), wk =   0.0012500
        k(  962) = (  -0.4102051   0.0256624   0.0000000), wk =   0.0012500
        k(  963) = (  -0.4102066   0.0513006   0.0000000), wk =   0.0012500
        k(  964) = (  -0.4102081   0.0769389   0.0000000), wk =   0.0012500
        k(  965) = (  -0.4102096   0.1025771   0.0000000), wk =   0.0012500
        k(  966) = (  -0.4102111   0.1282154   0.0000000), wk =   0.0012500
        k(  967) = (  -0.4102127   0.1538537   0.0000000), wk =   0.0012500
        k(  968) = (  -0.4102142   0.1794919   0.0000000), wk =   0.0012500
        k(  969) = (  -0.4102157   0.2051302   0.0000000), wk =   0.0012500
        k(  970) = (  -0.4102172   0.2307684   0.0000000), wk =   0.0012500
        k(  971) = (  -0.4102187   0.2564067   0.0000000), wk =   0.0012500
        k(  972) = (  -0.4102202   0.2820449   0.0000000), wk =   0.0012500
        k(  973) = (  -0.4102217   0.3076832   0.0000000), wk =   0.0012500
        k(  974) = (  -0.4102232   0.3333214   0.0000000), wk =   0.0012500
        k(  975) = (  -0.4102247   0.3589597   0.0000000), wk =   0.0012500
        k(  976) = (  -0.4102262   0.3845980   0.0000000), wk =   0.0012500
        k(  977) = (  -0.4102277   0.4102362   0.0000000), wk =   0.0012500
        k(  978) = (  -0.4102292   0.4358745   0.0000000), wk =   0.0012500
[...]
     8.9673   9.3017   9.3736   9.8767  10.3339  11.3345  11.8575  12.3935
    12.9667  13.4200  14.2936  14.6600  15.2624  15.4828  15.8123  16.0749

     occupation numbers 
     1.0000   1.0000   1.0000   1.0000   1.0000   1.0000   1.0000   1.0000
     1.0000   1.0000   1.0000   1.0000   1.0000   1.0000   0.9999   0.0000
     0.0000   0.0000   0.0000   0.0000   0.0000   0.0000   0.0000   0.0000
     0.0000   0.0000   0.0000   0.0000   0.0000   0.0000   0.0000   0.0000
     0.0000   0.0000   0.0000   0.0000   0.0000   0.0000   0.0000   0.0000

          k =-0.0256-0.3333 0.0000 (  7451 PWs)   bands (ev):

   -36.4196 -36.4173 -36.3792 -36.3774 -36.3635 -21.4466 -21.4370 -21.4278
   -21.4182 -21.4112 -11.5374  -7.1763  -3.5271  -1.1601  -0.3744   2.0271
     2.5552   3.6834   5.1656   5.4398   6.0198   6.7000   8.0284   8.7644
     9.1602   9.2608   9.3197   9.5939  10.1925  11.3462  12.1047  12.7038
    13.0126  13.4754  14.2796  14.5384  15.1127  15.3487  15.6351  15.6892

     occupation numbers 
     1.0000   1.0000   1.0000   1.0000   1.0000   1.0000   1.0000   1.0000
     1.0000   1.0000   1.0000   1.0000   1.0000   1.0000   1.0000   0.0000
     0.0000   0.0000   0.0000   0.0000   0.0000   0.0000   0.0000   0.0000
     0.0000   0.0000   0.0000   0.0000   0.0000   0.0000   0.0000   0.0000
     0.0000   0.0000   0.0000   0.0000   0.0000   0.0000   0.0000   0.0000

          k =-0.0256-0.3077 0.0000 (  7449 PWs)   bands (ev):

   -36.4195 -36.4177 -36.3790 -36.3774 -36.3637 -21.4475 -21.4355 -21.4265
   -21.4184 -21.4143 -11.6469  -7.0174  -3.5345  -1.0151  -0.4923   2.0794
     2.4224   3.8389   5.0197   5.3049   6.2487   6.8039   8.0084   8.6828
     9.1103   9.2818   9.4415   9.6319  10.0809  11.4134  12.3253  12.9935
    13.0942  13.5646  14.1329  14.6137  14.9704  15.1035  15.3138  15.4859

     occupation numbers 
     1.0000   1.0000   1.0000   1.0000   1.0000   1.0000   1.0000   1.0000
     1.0000   1.0000   1.0000   1.0000   1.0000   1.0000   1.0000   0.0000
     0.0000   0.0000   0.0000   0.0000   0.0000   0.0000   0.0000   0.0000
     0.0000   0.0000   0.0000   0.0000   0.0000   0.0000   0.0000   0.0000
     0.0000   0.0000   0.0000   0.0000   0.0000   0.0000   0.0000   0.0000

          k =-0.0256-0.2820 0.0000 (  7453 PWs)   bands (ev):

   -36.4193 -36.4182 -36.3788 -36.3774 -36.3640 -21.4485 -21.4339 -21.4253
   -21.4185 -21.4173 -11.7536  -6.8712  -3.5006  -0.8992  -0.6048   2.1747
     2.2802   3.9904   4.8807   5.1694   6.4894   6.8538   7.9396   8.4976
     8.9267   9.2839   9.7029   9.8657  10.0950  11.4813  12.4788  13.1536
    13.3411  13.6836  13.8959  14.7338  14.7727  14.9144  15.1319  15.3521

     occupation numbers 
     1.0000   1.0000   1.0000   1.0000   1.0000   1.0000   1.0000   1.0000
     1.0000   1.0000   1.0000   1.0000   1.0000   1.0000   1.0000   0.0000
     0.0000   0.0000   0.0000   0.0000   0.0000   0.0000   0.0000   0.0000
     0.0000   0.0000   0.0000   0.0000   0.0000   0.0000   0.0000   0.0000
     0.0000   0.0000   0.0000   0.0000   0.0000   0.0000   0.0000   0.0000

          k =-0.0256-0.2564 0.0000 (  7449 PWs)   bands (ev):

   -36.4191 -36.4187 -36.3786 -36.3774 -36.3642 -21.4498 -21.4324 -21.4240
   -21.4202 -21.4187 -11.8555  -6.7439  -3.4217  -0.8235  -0.7008   2.1291
     2.3160   4.1321   4.7516   5.0419   6.6910   6.8401   7.7304   8.5070
     8.7782   9.3024   9.7944  10.1101  10.3863  11.5321  12.5453  13.2762
    13.4440  13.7314  13.9237  14.5413  14.6765  14.9881  15.0645  15.3031

     occupation numbers 
     1.0000   1.0000   1.0000   1.0000   1.0000   1.0000   1.0000   1.0000
     1.0000   1.0000   1.0000   1.0000   1.0000   1.0000   1.0000   0.0000
     0.0000   0.0000   0.0000   0.0000   0.0000   0.0000   0.0000   0.0000
     0.0000   0.0000   0.0000   0.0000   0.0000   0.0000   0.0000   0.0000
     0.0000   0.0000   0.0000   0.0000   0.0000   0.0000   0.0000   0.0000

          k =-0.0256-0.2307 0.0000 (  7443 PWs)   bands (ev):

   -36.4192 -36.4189 -36.3785 -36.3774 -36.3644 -21.4512 -21.4310 -21.4228
   -21.4226 -21.4187 -11.9509  -6.6393  -3.2962  -0.8473  -0.7184   1.9709
     2.4992   4.2597   4.6344   4.9249   6.7037   6.7813   7.6169   8.6453
     8.6752   9.3171   9.8011  10.4463  10.7516  11.5738  12.5440  12.9742
    13.6308  13.8516  14.1690  14.5002  14.6052  14.8736  15.0381  15.5089

     occupation numbers 
     1.0000   1.0000   1.0000   1.0000   1.0000   1.0000   1.0000   1.0000
     1.0000   1.0000   1.0000   1.0000   1.0000   1.0000   1.0000   0.0000
     0.0000   0.0000   0.0000   0.0000   0.0000   0.0000   0.0000   0.0000
     0.0000   0.0000   0.0000   0.0000   0.0000   0.0000   0.0000   0.0000
     0.0000   0.0000   0.0000   0.0000   0.0000   0.0000   0.0000   0.0000

          k =-0.0256-0.2051 0.0000 (  7455 PWs)   bands (ev):

   -36.4197 -36.4188 -36.3783 -36.3774 -36.3646 -21.4529 -21.4301 -21.4245
   -21.4217 -21.4186 -12.0387  -6.5582  -3.1257  -0.9314  -0.6918   1.8036
     2.7193   4.3697   4.5310   4.8198   6.4124   6.7474   7.7429   8.5800
     8.8567   9.3053   9.8713  10.7680  11.1360  11.6339  12.4550  12.6356
    13.8440  13.8987  14.3891  14.5277  14.6624  14.8795  14.9605  15.7372

     occupation numbers 
     1.0000   1.0000   1.0000   1.0000   1.0000   1.0000   1.0000   1.0000
     1.0000   1.0000   1.0000   1.0000   1.0000   1.0000   1.0000   0.0000
     0.0000   0.0000   0.0000   0.0000   0.0000   0.0000   0.0000   0.0000
     0.0000   0.0000   0.0000   0.0000   0.0000   0.0000   0.0000   0.0000
     0.0000   0.0000   0.0000   0.0000   0.0000   0.0000   0.0000   0.0000

          k =-0.0256-0.1795 0.0000 (  7449 PWs)   bands (ev):

   -36.4202 -36.4186 -36.3781 -36.3775 -36.3648 -21.4547 -21.4301 -21.4251
   -21.4211 -21.4182 -12.1178  -6.4992  -2.9146  -1.0141  -0.6766   1.6253
     2.9671   4.4290   4.4739   4.7277   6.0480   6.6810   7.9444   8.5599
     9.0517   9.2773  10.0058  11.0181  11.5284  11.7549  12.1692  12.5396
    13.7871  14.1063  14.3936  14.5649  14.8251  14.9135  15.1596  15.6584

     occupation numbers 
     1.0000   1.0000   1.0000   1.0000   1.0000   1.0000   1.0000   1.0000
     1.0000   1.0000   1.0000   1.0000   1.0000   1.0000   1.0000   0.0000
     0.0000   0.0000   0.0000   0.0000   0.0000   0.0000   0.0000   0.0000
     0.0000   0.0000   0.0000   0.0000   0.0000   0.0000   0.0000   0.0000
     0.0000   0.0000   0.0000   0.0000   0.0000   0.0000   0.0000   0.0000

          k =-0.0256-0.1538 0.0000 (  7434 PWs)   bands (ev):

   -36.4207 -36.4185 -36.3779 -36.3774 -36.3650 -21.4566 -21.4310 -21.4245
   -21.4208 -21.4175 -12.1876  -6.4587  -2.6698  -1.0883  -0.6741   1.4344
     3.2311   4.3636   4.5362   4.6524   5.6893   6.6021   8.0740   8.6622
     9.1508   9.3125  10.1772  11.1540  11.8016  11.9238  12.0882  12.5307
    13.7254  14.1287  14.3717  14.5344  14.9251  15.1005  15.3263  15.4798

     occupation numbers 
     1.0000   1.0000   1.0000   1.0000   1.0000   1.0000   1.0000   1.0000
     1.0000   1.0000   1.0000   1.0000   1.0000   1.0000   1.0000   0.0000
     0.0000   0.0000   0.0000   0.0000   0.0000   0.0000   0.0000   0.0000
     0.0000   0.0000   0.0000   0.0000   0.0000   0.0000   0.0000   0.0000
     0.0000   0.0000   0.0000   0.0000   0.0000   0.0000   0.0000   0.0000

          k =-0.0256-0.1282 0.0000 (  7420 PWs)   bands (ev):

   -36.4211 -36.4183 -36.3778 -36.3774 -36.3651 -21.4584 -21.4321 -21.4236
   -21.4207 -21.4167 -12.2475  -6.4327  -2.4000  -1.1522  -0.6814   1.2301
     3.4949   4.3140   4.5518   4.6261   5.3673   6.5158   8.0976   8.8889
     9.1244   9.4097  10.3666  11.2145  11.7028  12.2214  12.3443  12.6640
    13.6837  14.0345  14.1887  14.5456  14.8607  14.8895  15.3055  15.4788

     occupation numbers 
     1.0000   1.0000   1.0000   1.0000   1.0000   1.0000   1.0000   1.0000
     1.0000   1.0000   1.0000   1.0000   1.0000   1.0000   1.0000   0.0000
     0.0000   0.0000   0.0000   0.0000   0.0000   0.0000   0.0000   0.0000
     0.0000   0.0000   0.0000   0.0000   0.0000   0.0000   0.0000   0.0000
     0.0000   0.0000   0.0000   0.0000   0.0000   0.0000   0.0000   0.0000

          k =-0.0256-0.1026 0.0000 (  7406 PWs)   bands (ev):

   -36.4214 -36.4182 -36.3777 -36.3774 -36.3652 -21.4601 -21.4330 -21.4226
   -21.4207 -21.4159 -12.2969  -6.4171  -2.1157  -1.2050  -0.6962   1.0148
     3.7299   4.3013   4.5095   4.6539   5.0992   6.4237   8.0778   9.0712
     9.1672   9.4258  10.5814  11.2705  11.7188  12.2664  12.7062  13.0047
    13.6826  13.8152  13.9525  14.4933  14.5394  14.7016  15.4739  15.6261

     occupation numbers 
     1.0000   1.0000   1.0000   1.0000   1.0000   1.0000   1.0000   1.0000
     1.0000   1.0000   1.0000   1.0000   1.0000   1.0000   1.0000   0.0000
     0.0000   0.0000   0.0000   0.0000   0.0000   0.0000   0.0000   0.0000
     0.0000   0.0000   0.0000   0.0000   0.0000   0.0000   0.0000   0.0000
     0.0000   0.0000   0.0000   0.0000   0.0000   0.0000   0.0000   0.0000

          k =-0.0256-0.0769 0.0000 (  7402 PWs)   bands (ev):

   -36.4217 -36.4181 -36.3776 -36.3774 -36.3653 -21.4615 -21.4337 -21.4218
   -21.4208 -21.4153 -12.3357  -6.4084  -1.8306  -1.2457  -0.7182   0.7967
     3.8881   4.3514   4.4740   4.6708   4.9026   6.3278   8.0504   9.0306
     9.3562   9.4196  10.8372  11.3589  11.8319  12.2494  13.0013  13.4122
    13.4755  13.6178  13.8366  14.2961  14.4886  14.5971  15.4545  15.6177

     occupation numbers 
     1.0000   1.0000   1.0000   1.0000   1.0000   1.0000   1.0000   1.0000
     1.0000   1.0000   1.0000   1.0000   1.0000   1.0000   1.0000   0.0000
     0.0000   0.0000   0.0000   0.0000   0.0000   0.0000   0.0000   0.0000
     0.0000   0.0000   0.0000   0.0000   0.0000   0.0000   0.0000   0.0000
     0.0000   0.0000   0.0000   0.0000   0.0000   0.0000   0.0000   0.0000

          k =-0.0256-0.0513 0.0000 (  7377 PWs)   bands (ev):

   -36.4219 -36.4180 -36.3775 -36.3774 -36.3654 -21.4626 -21.4342 -21.4212
   -21.4208 -21.4148 -12.3636  -6.4041  -1.5659  -1.2724  -0.7498   0.5943
     3.9510   4.4101   4.4859   4.6682   4.8031   6.2348   8.0270   8.9883
     9.2626   9.6255  11.1248  11.4788  11.9792  12.2159  13.1008  13.1597
    13.3006  13.8426  14.0995  14.2306  14.4599  14.5366  15.3352  15.4313

     occupation numbers 
     1.0000   1.0000   1.0000   1.0000   1.0000   1.0000   1.0000   1.0000
     1.0000   1.0000   1.0000   1.0000   1.0000   1.0000   1.0000   0.0000
     0.0000   0.0000   0.0000   0.0000   0.0000   0.0000   0.0000   0.0000
     0.0000   0.0000   0.0000   0.0000   0.0000   0.0000   0.0000   0.0000
     0.0000   0.0000   0.0000   0.0000   0.0000   0.0000   0.0000   0.0000

          k =-0.0256-0.0256 0.0000 (  7385 PWs)   bands (ev):

   -36.4220 -36.4180 -36.3775 -36.3774 -36.3654 -21.4633 -21.4345 -21.4209
   -21.4208 -21.4145 -12.3804  -6.4022  -1.3714  -1.2695  -0.7917   0.4415
     3.9659   4.4048   4.5000   4.7105   4.7796   6.1613   8.0119   8.9525
     9.1951   9.7584  11.4061  11.6019  12.0855  12.1669  12.8284  13.0295
    13.2007  14.0649  14.4100  14.4290  14.5151  14.5157  15.1214  15.3618

     occupation numbers 
     1.0000   1.0000   1.0000   1.0000   1.0000   1.0000   1.0000   1.0000
     1.0000   1.0000   1.0000   1.0000   1.0000   1.0000   1.0000   0.0004
     0.0000   0.0000   0.0000   0.0000   0.0000   0.0000   0.0000   0.0000
     0.0000   0.0000   0.0000   0.0000   0.0000   0.0000   0.0000   0.0000
     0.0000   0.0000   0.0000   0.0000   0.0000   0.0000   0.0000   0.0000

     the Fermi energy is     0.1179 ev

!    total energy              =    -932.26848341 Ry
     Harris-Foulkes estimate   =    -932.26848341 Ry
     estimated scf accuracy    <          1.2E-09 Ry

     total all-electron energy =    -25922.011906 Ry

     The total energy is the sum of the following terms:

     one-electron contribution =    -689.24445282 Ry
     hartree contribution      =     349.19562244 Ry
     xc contribution           =     -72.27133309 Ry
     ewald contribution        =      61.09992604 Ry
     one-center paw contrib.   =    -581.04794071 Ry
      -> PAW hartree energy AE =     112.93327180 Ry
      -> PAW hartree energy PS =    -103.29496627 Ry
      -> PAW xc energy AE      =    -318.46225146 Ry
      -> PAW xc energy PS      =      26.44468998 Ry
      -> total E_H with PAW    =     358.83392796 Ry
      -> total E_XC with PAW   =    -364.28889457 Ry
     smearing contrib. (-TS)   =      -0.00030527 Ry

     convergence has been achieved in   8 iterations

     negative rho (up, down):  1.049E-04 0.000E+00

     Forces acting on atoms (cartesian axes, Ry/au):

     atom    1 type  1   force =     0.00000677   -0.00000386    0.00047824
     atom    2 type  2   force =    -0.00000677    0.00000386   -0.00047824
     The non-local contrib.  to forces
     atom    1 type  1   force =     0.00001554    0.00007064   -0.44644662
     atom    2 type  2   force =    -0.00000548   -0.00003889    0.27458106
     The ionic contribution  to forces
     atom    1 type  1   force =    -0.00029750   -0.00187601   30.43104899
     atom    2 type  2   force =     0.00029750    0.00187601  -30.43104899
     The local contribution  to forces
     atom    1 type  1   force =     0.00027812    0.00179663  -29.99518091
     atom    2 type  2   force =    -0.00027707   -0.00182865   30.15721953
     The core correction contribution to forces
     atom    1 type  1   force =     0.00000002    0.00000028    0.01101942
     atom    2 type  2   force =    -0.00000606   -0.00001606   -0.00117258
     The Hubbard contrib.    to forces
     atom    1 type  1   force =     0.00000000    0.00000000    0.00000000
     atom    2 type  2   force =     0.00000000    0.00000000    0.00000000
     The SCF correction term to forces
     atom    1 type  1   force =     0.00000805    0.00000058    0.00001734
     atom    2 type  2   force =    -0.00001818    0.00000743   -0.00007728

     Total force =     0.000676     Total SCF correction =     0.000082
     SCF correction compared to forces is large: reduce conv_thr to get better values


     Computing stress (Cartesian axis) and pressure


     negative rho (up, down):  1.049E-04 0.000E+00
          total   stress  (Ry/bohr**3)                   (kbar)     P=   -0.05
   0.00000049  -0.00000007  -0.00000000          0.07     -0.01     -0.00
  -0.00000007   0.00000051  -0.00000002         -0.01      0.08     -0.00
  -0.00000000  -0.00000002  -0.00000194         -0.00     -0.00     -0.29

     kinetic stress (kbar)   3233.99      0.01      0.00
                                0.01   3233.99      0.01
                                0.00      0.01   3272.57

     local   stress (kbar) -61717.36      0.79      0.15
                                0.79 -61717.52      0.93
                                0.15      0.93  67180.98

     nonloc. stress (kbar)   1176.99     -0.00     -0.00
                               -0.00   1176.99     -0.01
                               -0.00     -0.01   1174.12

     hartree stress (kbar)  34233.98     -0.27     -0.05
                               -0.27  34234.05     -0.34
                               -0.05     -0.34 -27365.61

     exc-cor stress (kbar)   2112.98      0.00      0.00
                                0.00   2112.98      0.00
                                0.00      0.00   2112.98

     corecor stress (kbar)  -3882.73      0.00      0.00
                                0.00  -3882.73      0.00
                                0.00      0.00  -3882.61

     ewald   stress (kbar)  24842.22     -0.54     -0.09
                               -0.54  24842.32     -0.59
                               -0.09     -0.59 -42492.71

     hubbard stress (kbar)      0.00      0.00      0.00
                                0.00      0.00      0.00
                                0.00      0.00      0.00

     london  stress (kbar)      0.00      0.00      0.00
                                0.00      0.00      0.00
                                0.00      0.00      0.00

     DFT-D3  stress (kbar)      0.00      0.00      0.00
                                0.00      0.00      0.00
                                0.00      0.00      0.00

     XDM     stress (kbar)      0.00      0.00      0.00
                                0.00      0.00      0.00
                                0.00      0.00      0.00

     dft-nl  stress (kbar)      0.00      0.00      0.00
                                0.00      0.00      0.00
                                0.00      0.00      0.00

     TS-vdW  stress (kbar)      0.00      0.00      0.00
                                0.00      0.00      0.00
                                0.00      0.00      0.00



     Writing output data file snte.save/
 
     init_run     :    137.28s CPU    141.00s WALL (       1 calls)
     electrons    :   4060.94s CPU   4120.18s WALL (       1 calls)
     forces       :     19.84s CPU     20.17s WALL (       1 calls)
     stress       :    100.93s CPU    101.45s WALL (       1 calls)

     Called by init_run:
     wfcinit      :    132.56s CPU    135.99s WALL (       1 calls)
     wfcinit:atom :      1.53s CPU      1.55s WALL (    1600 calls)
     wfcinit:wfcr :    123.35s CPU    126.68s WALL (    1600 calls)
     potinit      :      1.37s CPU      1.38s WALL (       1 calls)
     hinit0       :      2.57s CPU      2.65s WALL (       1 calls)

     Called by electrons:
     c_bands      :   3521.76s CPU   3569.75s WALL (       9 calls)
     sum_band     :    535.05s CPU    544.69s WALL (       9 calls)
     v_of_rho     :      0.15s CPU      0.21s WALL (       9 calls)
     v_h          :      0.08s CPU      0.14s WALL (       9 calls)
     v_xc         :      0.08s CPU      0.08s WALL (      11 calls)
     newd         :      3.94s CPU      5.63s WALL (       9 calls)
     PAW_pot      :      0.54s CPU      0.54s WALL (       9 calls)
     mix_rho      :      0.12s CPU      0.16s WALL (       9 calls)

     Called by c_bands:
     init_us_2    :     50.27s CPU     50.90s WALL (   33600 calls)
     cegterg      :   3333.17s CPU   3379.71s WALL (   14400 calls)

     Called by sum_band:
     sum_band:bec :      0.70s CPU      0.71s WALL (   14400 calls)
     addusdens    :      4.09s CPU      5.80s WALL (       9 calls)

     Called by *egterg:
     h_psi        :   2580.33s CPU   2623.23s WALL (   68797 calls)
     s_psi        :     64.01s CPU     64.66s WALL (   68797 calls)
     g_psi        :     12.86s CPU     12.97s WALL (   52797 calls)
     cdiaghg      :    301.20s CPU    303.66s WALL (   65597 calls)
     cegterg:over :    185.44s CPU    187.43s WALL (   52797 calls)
     cegterg:upda :    149.45s CPU    150.38s WALL (   52797 calls)
     cegterg:last :     66.49s CPU     66.85s WALL (   16000 calls)

     Called by h_psi:
     h_psi:pot    :   2568.09s CPU   2610.52s WALL (   68797 calls)
     h_psi:calbec :     56.40s CPU     57.24s WALL (   68797 calls)
     vloc_psi     :   2442.49s CPU   2483.32s WALL (   68797 calls)
     add_vuspsi   :     68.38s CPU     69.32s WALL (   68797 calls)

     General routines
     calbec       :     90.32s CPU     91.75s WALL (   91197 calls)
     fft          :      0.45s CPU      0.55s WALL (      61 calls)
     ffts         :      0.03s CPU      0.03s WALL (      18 calls)
     fftw         :   2553.14s CPU   2595.37s WALL ( 3649646 calls)
     interpolate  :      0.06s CPU      0.06s WALL (       9 calls)
 
     Parallel routines
     fft_scatt_xy :    385.79s CPU    391.74s WALL ( 3649725 calls)
     fft_scatt_yz :    655.55s CPU    669.38s WALL ( 3649725 calls)

     PAW routines
     PAW_pot      :      0.54s CPU      0.54s WALL (       9 calls)
 
     PWSCF        :      1h12m CPU      1h13m WALL

 
   This run was terminated on:   9:27:31  16Oct2023            

=------------------------------------------------------------------------------=
   JOB DONE.
=------------------------------------------------------------------------------=
