ESCALE ; pCOHP file generated by LOBSTER. Energy is shifted such that the Fermi level lies at 0 eV.
        83          1       1001  -3.17721e+01   1.82779e+01  -1.74210e+00 
Average
No.1:Sn1->Te2(2.9338138322909773)
No.1:Sn1[5s]->Te2[5s](2.9338138322909773)
No.1:Sn1[5s]->Te2[5p_y](2.9338138322909773)
No.1:Sn1[5s]->Te2[5p_z](2.9338138322909773)
No.1:Sn1[5s]->Te2[5p_x](2.9338138322909773)
No.1:Sn1[5s]->Te2[4d_xy](2.9338138322909773)
No.1:Sn1[5s]->Te2[4d_yz](2.9338138322909773)
No.1:Sn1[5s]->Te2[4d_z^2](2.9338138322909773)
No.1:Sn1[5s]->Te2[4d_xz](2.9338138322909773)
No.1:Sn1[5s]->Te2[4d_x^2-y^2](2.9338138322909773)
No.1:Sn1[5p_y]->Te2[5s](2.9338138322909773)
No.1:Sn1[5p_y]->Te2[5p_y](2.9338138322909773)
No.1:Sn1[5p_y]->Te2[5p_z](2.9338138322909773)
No.1:Sn1[5p_y]->Te2[5p_x](2.9338138322909773)
No.1:Sn1[5p_y]->Te2[4d_xy](2.9338138322909773)
No.1:Sn1[5p_y]->Te2[4d_yz](2.9338138322909773)
No.1:Sn1[5p_y]->Te2[4d_z^2](2.9338138322909773)
No.1:Sn1[5p_y]->Te2[4d_xz](2.9338138322909773)
No.1:Sn1[5p_y]->Te2[4d_x^2-y^2](2.9338138322909773)
No.1:Sn1[5p_z]->Te2[5s](2.9338138322909773)
No.1:Sn1[5p_z]->Te2[5p_y](2.9338138322909773)
No.1:Sn1[5p_z]->Te2[5p_z](2.9338138322909773)
No.1:Sn1[5p_z]->Te2[5p_x](2.9338138322909773)
No.1:Sn1[5p_z]->Te2[4d_xy](2.9338138322909773)
No.1:Sn1[5p_z]->Te2[4d_yz](2.9338138322909773)
No.1:Sn1[5p_z]->Te2[4d_z^2](2.9338138322909773)
No.1:Sn1[5p_z]->Te2[4d_xz](2.9338138322909773)
No.1:Sn1[5p_z]->Te2[4d_x^2-y^2](2.9338138322909773)
No.1:Sn1[5p_x]->Te2[5s](2.9338138322909773)
No.1:Sn1[5p_x]->Te2[5p_y](2.9338138322909773)
No.1:Sn1[5p_x]->Te2[5p_z](2.9338138322909773)
No.1:Sn1[5p_x]->Te2[5p_x](2.9338138322909773)
No.1:Sn1[5p_x]->Te2[4d_xy](2.9338138322909773)
No.1:Sn1[5p_x]->Te2[4d_yz](2.9338138322909773)
No.1:Sn1[5p_x]->Te2[4d_z^2](2.9338138322909773)
No.1:Sn1[5p_x]->Te2[4d_xz](2.9338138322909773)
No.1:Sn1[5p_x]->Te2[4d_x^2-y^2](2.9338138322909773)
No.1:Sn1[4d_xy]->Te2[5s](2.9338138322909773)
No.1:Sn1[4d_xy]->Te2[5p_y](2.9338138322909773)
No.1:Sn1[4d_xy]->Te2[5p_z](2.9338138322909773)
No.1:Sn1[4d_xy]->Te2[5p_x](2.9338138322909773)
No.1:Sn1[4d_xy]->Te2[4d_xy](2.9338138322909773)
No.1:Sn1[4d_xy]->Te2[4d_yz](2.9338138322909773)
No.1:Sn1[4d_xy]->Te2[4d_z^2](2.9338138322909773)
No.1:Sn1[4d_xy]->Te2[4d_xz](2.9338138322909773)
No.1:Sn1[4d_xy]->Te2[4d_x^2-y^2](2.9338138322909773)
No.1:Sn1[4d_yz]->Te2[5s](2.9338138322909773)
No.1:Sn1[4d_yz]->Te2[5p_y](2.9338138322909773)
No.1:Sn1[4d_yz]->Te2[5p_z](2.9338138322909773)
No.1:Sn1[4d_yz]->Te2[5p_x](2.9338138322909773)
No.1:Sn1[4d_yz]->Te2[4d_xy](2.9338138322909773)
No.1:Sn1[4d_yz]->Te2[4d_yz](2.9338138322909773)
No.1:Sn1[4d_yz]->Te2[4d_z^2](2.9338138322909773)
No.1:Sn1[4d_yz]->Te2[4d_xz](2.9338138322909773)
No.1:Sn1[4d_yz]->Te2[4d_x^2-y^2](2.9338138322909773)
No.1:Sn1[4d_z^2]->Te2[5s](2.9338138322909773)
No.1:Sn1[4d_z^2]->Te2[5p_y](2.9338138322909773)
No.1:Sn1[4d_z^2]->Te2[5p_z](2.9338138322909773)
No.1:Sn1[4d_z^2]->Te2[5p_x](2.9338138322909773)
No.1:Sn1[4d_z^2]->Te2[4d_xy](2.9338138322909773)
No.1:Sn1[4d_z^2]->Te2[4d_yz](2.9338138322909773)
No.1:Sn1[4d_z^2]->Te2[4d_z^2](2.9338138322909773)
No.1:Sn1[4d_z^2]->Te2[4d_xz](2.9338138322909773)
No.1:Sn1[4d_z^2]->Te2[4d_x^2-y^2](2.9338138322909773)
No.1:Sn1[4d_xz]->Te2[5s](2.9338138322909773)
No.1:Sn1[4d_xz]->Te2[5p_y](2.9338138322909773)
No.1:Sn1[4d_xz]->Te2[5p_z](2.9338138322909773)
No.1:Sn1[4d_xz]->Te2[5p_x](2.9338138322909773)
No.1:Sn1[4d_xz]->Te2[4d_xy](2.9338138322909773)
No.1:Sn1[4d_xz]->Te2[4d_yz](2.9338138322909773)
No.1:Sn1[4d_xz]->Te2[4d_z^2](2.9338138322909773)
No.1:Sn1[4d_xz]->Te2[4d_xz](2.9338138322909773)
No.1:Sn1[4d_xz]->Te2[4d_x^2-y^2](2.9338138322909773)
No.1:Sn1[4d_x^2-y^2]->Te2[5s](2.9338138322909773)
No.1:Sn1[4d_x^2-y^2]->Te2[5p_y](2.9338138322909773)
No.1:Sn1[4d_x^2-y^2]->Te2[5p_z](2.9338138322909773)
No.1:Sn1[4d_x^2-y^2]->Te2[5p_x](2.9338138322909773)
No.1:Sn1[4d_x^2-y^2]->Te2[4d_xy](2.9338138322909773)
No.1:Sn1[4d_x^2-y^2]->Te2[4d_yz](2.9338138322909773)
No.1:Sn1[4d_x^2-y^2]->Te2[4d_z^2](2.9338138322909773)
No.1:Sn1[4d_x^2-y^2]->Te2[4d_xz](2.9338138322909773)
No.1:Sn1[4d_x^2-y^2]->Te2[4d_x^2-y^2](2.9338138322909773)
-30.03003   0.00000  -0.00088   0.00000  -0.03609   0.00000  -0.00002   0.00000  -0.00000   0.00000  -0.00000   0.00000  -0.00001   0.00000  -0.00365   0.00000  -0.00000   0.00000  -0.00134   0.00000  -0.00000   0.00000  -0.00122   0.00000   0.00002   0.00000  -0.00000   0.00000  -0.00000   0.00000   0.00004   0.00000  -0.00043   0.00000  -0.00000   0.00000  -0.00104   0.00000  -0.00001   0.00000  -0.00743   0.00000  -0.00000   0.00000  -0.00000   0.00000   0.00001   0.00000  -0.00000   0.00000  -0.00000   0.00000  -0.00113   0.00000  -0.00000   0.00000  -0.00339   0.00000  -0.00000   0.00000   0.00005   0.00000   0.00004   0.00000  -0.00000   0.00000   0.00006   0.00000  -0.01214   0.00000  -0.00001   0.00000  -0.00311   0.00000  -0.00000   0.00000  -0.00043   0.00000  -0.00000   0.00000   0.00000   0.00000  -0.00000   0.00000   0.00000   0.00000  -0.00020   0.00000  -0.00000   0.00000  -0.00010   0.00000  -0.00000   0.00000  -0.00016   0.00000  -0.00000   0.00000  -0.00000   0.00000  -0.00000   0.00000  -0.00000   0.00000  -0.00000   0.00000  -0.00000   0.00000  -0.00000   0.00000  -0.00002   0.00000  -0.00000   0.00000  -0.00000   0.00000  -0.00000   0.00000  -0.00000   0.00000  -0.00000   0.00000  -0.00011   0.00000  -0.00000   0.00000  -0.00006   0.00000  -0.00000   0.00000  -0.00004   0.00000  -0.00000   0.00000  -0.00000   0.00000  -0.00000   0.00000  -0.00000   0.00000  -0.00000   0.00000  -0.00002   0.00000   0.00000   0.00000  -0.00004   0.00000  -0.00000   0.00000  -0.00000   0.00000  -0.00000   0.00000  -0.00000   0.00000   0.00000   0.00000  -0.00016   0.00000  -0.00000   0.00000  -0.00003   0.00000  -0.00000   0.00000  -0.00000
-29.97998   0.00000  -0.00088   0.00000  -0.03609   0.00000  -0.00002   0.00000  -0.00000   0.00000  -0.00000   0.00000  -0.00001   0.00000  -0.00365   0.00000  -0.00000   0.00000  -0.00134   0.00000  -0.00000   0.00000  -0.00122   0.00000   0.00002   0.00000  -0.00000   0.00000  -0.00000   0.00000   0.00004   0.00000  -0.00043   0.00000  -0.00000   0.00000  -0.00104   0.00000  -0.00001   0.00000  -0.00743   0.00000  -0.00000   0.00000  -0.00000   0.00000   0.00001   0.00000  -0.00000   0.00000  -0.00000   0.00000  -0.00113   0.00000  -0.00000   0.00000  -0.00339   0.00000  -0.00000   0.00000   0.00005   0.00000   0.00004   0.00000  -0.00000   0.00000   0.00006   0.00000  -0.01214   0.00000  -0.00001   0.00000  -0.00311   0.00000  -0.00000   0.00000  -0.00043   0.00000  -0.00000   0.00000   0.00000   0.00000  -0.00000   0.00000   0.00000   0.00000  -0.00020   0.00000  -0.00000   0.00000  -0.00010   0.00000  -0.00000   0.00000  -0.00016   0.00000  -0.00000   0.00000  -0.00000   0.00000  -0.00000   0.00000  -0.00000   0.00000  -0.00000   0.00000  -0.00000   0.00000  -0.00000   0.00000  -0.00002   0.00000  -0.00000   0.00000  -0.00000   0.00000  -0.00000   0.00000  -0.00000   0.00000  -0.00000   0.00000  -0.00011   0.00000  -0.00000   0.00000  -0.00006   0.00000  -0.00000   0.00000  -0.00004   0.00000  -0.00000   0.00000  -0.00000   0.00000  -0.00000   0.00000  -0.00000   0.00000  -0.00000   0.00000  -0.00002   0.00000   0.00000   0.00000  -0.00004   0.00000  -0.00000   0.00000  -0.00000   0.00000  -0.00000   0.00000  -0.00000   0.00000   0.00000   0.00000  -0.00016   0.00000  -0.00000   0.00000  -0.00003   0.00000  -0.00000   0.00000  -0.00000
-29.92993   0.00000  -0.00088   0.00000  -0.03609   0.00000  -0.00002   0.00000  -0.00000   0.00000  -0.00000   0.00000  -0.00001   0.00000  -0.00365   0.00000  -0.00000   0.00000  -0.00134   0.00000  -0.00000   0.00000  -0.00122   0.00000   0.00002   0.00000  -0.00000   0.00000  -0.00000   0.00000   0.00004   0.00000  -0.00043   0.00000  -0.00000   0.00000  -0.00104   0.00000  -0.00001   0.00000  -0.00743   0.00000  -0.00000   0.00000  -0.00000   0.00000   0.00001   0.00000  -0.00000   0.00000  -0.00000   0.00000  -0.00113   0.00000  -0.00000   0.00000  -0.00339   0.00000  -0.00000   0.00000   0.00005   0.00000   0.00004   0.00000  -0.00000   0.00000   0.00006   0.00000  -0.01214   0.00000  -0.00001   0.00000  -0.00311   0.00000  -0.00000   0.00000  -0.00043   0.00000  -0.00000   0.00000   0.00000   0.00000  -0.00000   0.00000   0.00000   0.00000  -0.00020   0.00000  -0.00000   0.00000  -0.00010   0.00000  -0.00000   0.00000  -0.00016   0.00000  -0.00000   0.00000  -0.00000   0.00000  -0.00000   0.00000  -0.00000   0.00000  -0.00000   0.00000  -0.00000   0.00000  -0.00000   0.00000  -0.00002   0.00000  -0.00000   0.00000  -0.00000   0.00000  -0.00000   0.00000  -0.00000   0.00000  -0.00000   0.00000  -0.00011   0.00000  -0.00000   0.00000  -0.00006   0.00000  -0.00000   0.00000  -0.00004   0.00000  -0.00000   0.00000  -0.00000   0.00000  -0.00000   0.00000  -0.00000   0.00000  -0.00000   0.00000  -0.00002   0.00000   0.00000   0.00000  -0.00004   0.00000  -0.00000   0.00000  -0.00000   0.00000  -0.00000   0.00000  -0.00000   0.00000   0.00000   0.00000  -0.00016   0.00000  -0.00000   0.00000  -0.00003   0.00000  -0.00000   0.00000  -0.00000
-29.87988   0.00000  -0.00088   0.00000  -0.03609   0.00000  -0.00002   0.00000  -0.00000   0.00000  -0.00000   0.00000  -0.00001   0.00000  -0.00365   0.00000  -0.00000   0.00000  -0.00134   0.00000  -0.00000   0.00000  -0.00122   0.00000   0.00002   0.00000  -0.00000   0.00000  -0.00000   0.00000   0.00004   0.00000  -0.00043   0.00000  -0.00000   0.00000  -0.00104   0.00000  -0.00001   0.00000  -0.00743   0.00000  -0.00000   0.00000  -0.00000   0.00000   0.00001   0.00000  -0.00000   0.00000  -0.00000   0.00000  -0.00113   0.00000  -0.00000   0.00000  -0.00339   0.00000  -0.00000   0.00000   0.00005   0.00000   0.00004   0.00000  -0.00000   0.00000   0.00006   0.00000  -0.01214   0.00000  -0.00001   0.00000  -0.00311   0.00000  -0.00000   0.00000  -0.00043   0.00000  -0.00000   0.00000   0.00000   0.00000  -0.00000   0.00000   0.00000   0.00000  -0.00020   0.00000  -0.00000   0.00000  -0.00010   0.00000  -0.00000   0.00000  -0.00016   0.00000  -0.00000   0.00000  -0.00000   0.00000  -0.00000   0.00000  -0.00000   0.00000  -0.00000   0.00000  -0.00000   0.00000  -0.00000   0.00000  -0.00002   0.00000  -0.00000   0.00000  -0.00000   0.00000  -0.00000   0.00000  -0.00000   0.00000  -0.00000   0.00000  -0.00011   0.00000  -0.00000   0.00000  -0.00006   0.00000  -0.00000   0.00000  -0.00004   0.00000  -0.00000   0.00000  -0.00000   0.00000  -0.00000   0.00000  -0.00000   0.00000  -0.00000   0.00000  -0.00002   0.00000   0.00000   0.00000  -0.00004   0.00000  -0.00000   0.00000  -0.00000   0.00000  -0.00000   0.00000  -0.00000   0.00000   0.00000   0.00000  -0.00016   0.00000  -0.00000   0.00000  -0.00003   0.00000  -0.00000   0.00000  -0.00000
-29.82983   0.00000  -0.00088   0.00000  -0.03609   0.00000  -0.00002   0.00000  -0.00000   0.00000  -0.00000   0.00000  -0.00001   0.00000  -0.00365   0.00000  -0.00000   0.00000  -0.00134   0.00000  -0.00000   0.00000  -0.00122   0.00000   0.00002   0.00000  -0.00000   0.00000  -0.00000   0.00000   0.00004   0.00000  -0.00043   0.00000  -0.00000   0.00000  -0.00104   0.00000  -0.00001   0.00000  -0.00743   0.00000  -0.00000   0.00000  -0.00000   0.00000   0.00001   0.00000  -0.00000   0.00000  -0.00000   0.00000  -0.00113   0.00000  -0.00000   0.00000  -0.00339   0.00000  -0.00000   0.00000   0.00005   0.00000   0.00004   0.00000  -0.00000   0.00000   0.00006   0.00000  -0.01214   0.00000  -0.00001   0.00000  -0.00311   0.00000  -0.00000   0.00000  -0.00043   0.00000  -0.00000   0.00000   0.00000   0.00000  -0.00000   0.00000   0.00000   0.00000  -0.00020   0.00000  -0.00000   0.00000  -0.00010   0.00000  -0.00000   0.00000  -0.00016   0.00000  -0.00000   0.00000  -0.00000   0.00000  -0.00000   0.00000  -0.00000   0.00000  -0.00000   0.00000  -0.00000   0.00000  -0.00000   0.00000  -0.00002   0.00000  -0.00000   0.00000  -0.00000   0.00000  -0.00000   0.00000  -0.00000   0.00000  -0.00000   0.00000  -0.00011   0.00000  -0.00000   0.00000  -0.00006   0.00000  -0.00000   0.00000  -0.00004   0.00000  -0.00000   0.00000  -0.00000   0.00000  -0.00000   0.00000  -0.00000   0.00000  -0.00000   0.00000  -0.00002   0.00000   0.00000   0.00000  -0.00004   0.00000  -0.00000   0.00000  -0.00000   0.00000  -0.00000   0.00000  -0.00000   0.00000   0.00000   0.00000  -0.00016   0.00000  -0.00000   0.00000  -0.00003   0.00000  -0.00000   0.00000  -0.00000
-29.77978   0.00000  -0.00088   0.00000  -0.03609   0.00000  -0.00002   0.00000  -0.00000   0.00000  -0.00000   0.00000  -0.00001   0.00000  -0.00365   0.00000  -0.00000   0.00000  -0.00134   0.00000  -0.00000   0.00000  -0.00122   0.00000   0.00002   0.00000  -0.00000   0.00000  -0.00000   0.00000   0.00004   0.00000  -0.00043   0.00000  -0.00000   0.00000  -0.00104   0.00000  -0.00001   0.00000  -0.00743   0.00000  -0.00000   0.00000  -0.00000   0.00000   0.00001   0.00000  -0.00000   0.00000  -0.00000   0.00000  -0.00113   0.00000  -0.00000   0.00000  -0.00339   0.00000  -0.00000   0.00000   0.00005   0.00000   0.00004   0.00000  -0.00000   0.00000   0.00006   0.00000  -0.01214   0.00000  -0.00001   0.00000  -0.00311   0.00000  -0.00000   0.00000  -0.00043   0.00000  -0.00000   0.00000   0.00000   0.00000  -0.00000   0.00000   0.00000   0.00000  -0.00020   0.00000  -0.00000   0.00000  -0.00010   0.00000  -0.00000   0.00000  -0.00016   0.00000  -0.00000   0.00000  -0.00000   0.00000  -0.00000   0.00000  -0.00000   0.00000  -0.00000   0.00000  -0.00000   0.00000  -0.00000   0.00000  -0.00002   0.00000  -0.00000   0.00000  -0.00000   0.00000  -0.00000   0.00000  -0.00000   0.00000  -0.00000   0.00000  -0.00011   0.00000  -0.00000   0.00000  -0.00006   0.00000  -0.00000   0.00000  -0.00004   0.00000  -0.00000   0.00000  -0.00000   0.00000  -0.00000   0.00000  -0.00000   0.00000  -0.00000   0.00000  -0.00002   0.00000   0.00000   0.00000  -0.00004   0.00000  -0.00000   0.00000  -0.00000   0.00000  -0.00000   0.00000  -0.00000   0.00000   0.00000   0.00000  -0.00016   0.00000  -0.00000   0.00000  -0.00003   0.00000  -0.00000   0.00000  -0.00000
-29.72973   0.00000  -0.00088   0.00000  -0.03609   0.00000  -0.00002   0.00000  -0.00000   0.00000  -0.00000   0.00000  -0.00001   0.00000  -0.00365   0.00000  -0.00000   0.00000  -0.00134   0.00000  -0.00000   0.00000  -0.00122   0.00000   0.00002   0.00000  -0.00000   0.00000  -0.00000   0.00000   0.00004   0.00000  -0.00043   0.00000  -0.00000   0.00000  -0.00104   0.00000  -0.00001   0.00000  -0.00743   0.00000  -0.00000   0.00000  -0.00000   0.00000   0.00001   0.00000  -0.00000   0.00000  -0.00000   0.00000  -0.00113   0.00000  -0.00000   0.00000  -0.00339   0.00000  -0.00000   0.00000   0.00005   0.00000   0.00004   0.00000  -0.00000   0.00000   0.00006   0.00000  -0.01214   0.00000  -0.00001   0.00000  -0.00311   0.00000  -0.00000   0.00000  -0.00043   0.00000  -0.00000   0.00000   0.00000   0.00000  -0.00000   0.00000   0.00000   0.00000  -0.00020   0.00000  -0.00000   0.00000  -0.00010   0.00000  -0.00000   0.00000  -0.00016   0.00000  -0.00000   0.00000  -0.00000   0.00000  -0.00000   0.00000  -0.00000   0.00000  -0.00000   0.00000  -0.00000   0.00000  -0.00000   0.00000  -0.00002   0.00000  -0.00000   0.00000  -0.00000   0.00000  -0.00000   0.00000  -0.00000   0.00000  -0.00000   0.00000  -0.00011   0.00000  -0.00000   0.00000  -0.00006   0.00000  -0.00000   0.00000  -0.00004   0.00000  -0.00000   0.00000  -0.00000   0.00000  -0.00000   0.00000  -0.00000   0.00000  -0.00000   0.00000  -0.00002   0.00000   0.00000   0.00000  -0.00004   0.00000  -0.00000   0.00000  -0.00000   0.00000  -0.00000   0.00000  -0.00000   0.00000   0.00000   0.00000  -0.00016   0.00000  -0.00000   0.00000  -0.00003   0.00000  -0.00000   0.00000  -0.00000
-29.67968   0.00000  -0.00088   0.00000  -0.03609   0.00000  -0.00002   0.00000  -0.00000   0.00000  -0.00000   0.00000  -0.00001   0.00000  -0.00365   0.00000  -0.00000   0.00000  -0.00134   0.00000  -0.00000   0.00000  -0.00122   0.00000   0.00002   0.00000  -0.00000   0.00000  -0.00000   0.00000   0.00004   0.00000  -0.00043   0.00000  -0.00000   0.00000  -0.00104   0.00000  -0.00001   0.00000  -0.00743   0.00000  -0.00000   0.00000  -0.00000   0.00000   0.00001   0.00000  -0.00000   0.00000  -0.00000   0.00000  -0.00113   0.00000  -0.00000   0.00000  -0.00339   0.00000  -0.00000   0.00000   0.00005   0.00000   0.00004   0.00000  -0.00000   0.00000   0.00006   0.00000  -0.01214   0.00000  -0.00001   0.00000  -0.00311   0.00000  -0.00000   0.00000  -0.00043   0.00000  -0.00000   0.00000   0.00000   0.00000  -0.00000   0.00000   0.00000   0.00000  -0.00020   0.00000  -0.00000   0.00000  -0.00010   0.00000  -0.00000   0.00000  -0.00016   0.00000  -0.00000   0.00000  -0.00000   0.00000  -0.00000   0.00000  -0.00000   0.00000  -0.00000   0.00000  -0.00000   0.00000  -0.00000   0.00000  -0.00002   0.00000  -0.00000   0.00000  -0.00000   0.00000  -0.00000   0.00000  -0.00000   0.00000  -0.00000   0.00000  -0.00011   0.00000  -0.00000   0.00000  -0.00006   0.00000  -0.00000   0.00000  -0.00004   0.00000  -0.00000   0.00000  -0.00000   0.00000  -0.00000   0.00000  -0.00000   0.00000  -0.00000   0.00000  -0.00002   0.00000   0.00000   0.00000  -0.00004   0.00000  -0.00000   0.00000  -0.00000   0.00000  -0.00000   0.00000  -0.00000   0.00000   0.00000   0.00000  -0.00016   0.00000  -0.00000   0.00000  -0.00003   0.00000  -0.00000   0.00000  -0.00000
-29.62963   0.00000  -0.00088   0.00000  -0.03609   0.00000  -0.00002   0.00000  -0.00000   0.00000  -0.00000   0.00000  -0.00001   0.00000  -0.00365   0.00000  -0.00000   0.00000  -0.00134   0.00000  -0.00000   0.00000  -0.00122   0.00000   0.00002   0.00000  -0.00000   0.00000  -0.00000   0.00000   0.00004   0.00000  -0.00043   0.00000  -0.00000   0.00000  -0.00104   0.00000  -0.00001   0.00000  -0.00743   0.00000  -0.00000   0.00000  -0.00000   0.00000   0.00001   0.00000  -0.00000   0.00000  -0.00000   0.00000  -0.00113   0.00000  -0.00000   0.00000  -0.00339   0.00000  -0.00000   0.00000   0.00005   0.00000   0.00004   0.00000  -0.00000   0.00000   0.00006   0.00000  -0.01214   0.00000  -0.00001   0.00000  -0.00311   0.00000  -0.00000   0.00000  -0.00043   0.00000  -0.00000   0.00000   0.00000   0.00000  -0.00000   0.00000   0.00000   0.00000  -0.00020   0.00000  -0.00000   0.00000  -0.00010   0.00000  -0.00000   0.00000  -0.00016   0.00000  -0.00000   0.00000  -0.00000   0.00000  -0.00000   0.00000  -0.00000   0.00000  -0.00000   0.00000  -0.00000   0.00000  -0.00000   0.00000  -0.00002   0.00000  -0.00000   0.00000  -0.00000   0.00000  -0.00000   0.00000  -0.00000   0.00000  -0.00000   0.00000  -0.00011   0.00000  -0.00000   0.00000  -0.00006   0.00000  -0.00000   0.00000  -0.00004   0.00000  -0.00000   0.00000  -0.00000   0.00000  -0.00000   0.00000  -0.00000   0.00000  -0.00000   0.00000  -0.00002   0.00000   0.00000   0.00000  -0.00004   0.00000  -0.00000   0.00000  -0.00000   0.00000  -0.00000   0.00000  -0.00000   0.00000   0.00000   0.00000  -0.00016   0.00000  -0.00000   0.00000  -0.00003   0.00000  -0.00000   0.00000  -0.00000
-29.57958   0.00000  -0.00088   0.00000  -0.03609   0.00000  -0.00002   0.00000  -0.00000   0.00000  -0.00000   0.00000  -0.00001   0.00000  -0.00365   0.00000  -0.00000   0.00000  -0.00134   0.00000  -0.00000   0.00000  -0.00122   0.00000   0.00002   0.00000  -0.00000   0.00000  -0.00000   0.00000   0.00004   0.00000  -0.00043   0.00000  -0.00000   0.00000  -0.00104   0.00000  -0.00001   0.00000  -0.00743   0.00000  -0.00000   0.00000  -0.00000   0.00000   0.00001   0.00000  -0.00000   0.00000  -0.00000   0.00000  -0.00113   0.00000  -0.00000   0.00000  -0.00339   0.00000  -0.00000   0.00000   0.00005   0.00000   0.00004   0.00000  -0.00000   0.00000   0.00006   0.00000  -0.01214   0.00000  -0.00001   0.00000  -0.00311   0.00000  -0.00000   0.00000  -0.00043   0.00000  -0.00000   0.00000   0.00000   0.00000  -0.00000   0.00000   0.00000   0.00000  -0.00020   0.00000  -0.00000   0.00000  -0.00010   0.00000  -0.00000   0.00000  -0.00016   0.00000  -0.00000   0.00000  -0.00000   0.00000  -0.00000   0.00000  -0.00000   0.00000  -0.00000   0.00000  -0.00000   0.00000  -0.00000   0.00000  -0.00002   0.00000  -0.00000   0.00000  -0.00000   0.00000  -0.00000   0.00000  -0.00000   0.00000  -0.00000   0.00000  -0.00011   0.00000  -0.00000   0.00000  -0.00006   0.00000  -0.00000   0.00000  -0.00004   0.00000  -0.00000   0.00000  -0.00000   0.00000  -0.00000   0.00000  -0.00000   0.00000  -0.00000   0.00000  -0.00002   0.00000   0.00000   0.00000  -0.00004   0.00000  -0.00000   0.00000  -0.00000   0.00000  -0.00000   0.00000  -0.00000   0.00000   0.00000   0.00000  -0.00016   0.00000  -0.00000   0.00000  -0.00003   0.00000  -0.00000   0.00000  -0.00000
-29.52953   0.00000  -0.00088   0.00000  -0.03609   0.00000  -0.00002   0.00000  -0.00000   0.00000  -0.00000   0.00000  -0.00001   0.00000  -0.00365   0.00000  -0.00000   0.00000  -0.00134   0.00000  -0.00000   0.00000  -0.00122   0.00000   0.00002   0.00000  -0.00000   0.00000  -0.00000   0.00000   0.00004   0.00000  -0.00043   0.00000  -0.00000   0.00000  -0.00104   0.00000  -0.00001   0.00000  -0.00743   0.00000  -0.00000   0.00000  -0.00000   0.00000   0.00001   0.00000  -0.00000   0.00000  -0.00000   0.00000  -0.00113   0.00000  -0.00000   0.00000  -0.00339   0.00000  -0.00000   0.00000   0.00005   0.00000   0.00004   0.00000  -0.00000   0.00000   0.00006   0.00000  -0.01214   0.00000  -0.00001   0.00000  -0.00311   0.00000  -0.00000   0.00000  -0.00043   0.00000  -0.00000   0.00000   0.00000   0.00000  -0.00000   0.00000   0.00000   0.00000  -0.00020   0.00000  -0.00000   0.00000  -0.00010   0.00000  -0.00000   0.00000  -0.00016   0.00000  -0.00000   0.00000  -0.00000   0.00000  -0.00000   0.00000  -0.00000   0.00000  -0.00000   0.00000  -0.00000   0.00000  -0.00000   0.00000  -0.00002   0.00000  -0.00000   0.00000  -0.00000   0.00000  -0.00000   0.00000  -0.00000   0.00000  -0.00000   0.00000  -0.00011   0.00000  -0.00000   0.00000  -0.00006   0.00000  -0.00000   0.00000  -0.00004   0.00000  -0.00000   0.00000  -0.00000   0.00000  -0.00000   0.00000  -0.00000   0.00000  -0.00000   0.00000  -0.00002   0.00000   0.00000   0.00000  -0.00004   0.00000  -0.00000   0.00000  -0.00000   0.00000  -0.00000   0.00000  -0.00000   0.00000   0.00000   0.00000  -0.00016   0.00000  -0.00000   0.00000  -0.00003   0.00000  -0.00000   0.00000  -0.00000
-29.47948   0.00000  -0.00088   0.00000  -0.03609   0.00000  -0.00002   0.00000  -0.00000   0.00000  -0.00000   0.00000  -0.00001   0.00000  -0.00365   0.00000  -0.00000   0.00000  -0.00134   0.00000  -0.00000   0.00000  -0.00122   0.00000   0.00002   0.00000  -0.00000   0.00000  -0.00000   0.00000   0.00004   0.00000  -0.00043   0.00000  -0.00000   0.00000  -0.00104   0.00000  -0.00001   0.00000  -0.00743   0.00000  -0.00000   0.00000  -0.00000   0.00000   0.00001   0.00000  -0.00000   0.00000  -0.00000   0.00000  -0.00113   0.00000  -0.00000   0.00000  -0.00339   0.00000  -0.00000   0.00000   0.00005   0.00000   0.00004   0.00000  -0.00000   0.00000   0.00006   0.00000  -0.01214   0.00000  -0.00001   0.00000  -0.00311   0.00000  -0.00000   0.00000  -0.00043   0.00000  -0.00000   0.00000   0.00000   0.00000  -0.00000   0.00000   0.00000   0.00000  -0.00020   0.00000  -0.00000   0.00000  -0.00010   0.00000  -0.00000   0.00000  -0.00016   0.00000  -0.00000   0.00000  -0.00000   0.00000  -0.00000   0.00000  -0.00000   0.00000  -0.00000   0.00000  -0.00000   0.00000  -0.00000   0.00000  -0.00002   0.00000  -0.00000   0.00000  -0.00000   0.00000  -0.00000   0.00000  -0.00000   0.00000  -0.00000   0.00000  -0.00011   0.00000  -0.00000   0.00000  -0.00006   0.00000  -0.00000   0.00000  -0.00004   0.00000  -0.00000   0.00000  -0.00000   0.00000  -0.00000   0.00000  -0.00000   0.00000  -0.00000   0.00000  -0.00002   0.00000   0.00000   0.00000  -0.00004   0.00000  -0.00000   0.00000  -0.00000   0.00000  -0.00000   0.00000  -0.00000   0.00000   0.00000   0.00000  -0.00016   0.00000  -0.00000   0.00000  -0.00003   0.00000  -0.00000   0.00000  -0.00000
-29.42943   0.00000  -0.00088   0.00000  -0.03609   0.00000  -0.00002   0.00000  -0.00000   0.00000  -0.00000   0.00000  -0.00001   0.00000  -0.00365   0.00000  -0.00000   0.00000  -0.00134   0.00000  -0.00000   0.00000  -0.00122   0.00000   0.00002   0.00000  -0.00000   0.00000  -0.00000   0.00000   0.00004   0.00000  -0.00043   0.00000  -0.00000   0.00000  -0.00104   0.00000  -0.00001   0.00000  -0.00743   0.00000  -0.00000   0.00000  -0.00000   0.00000   0.00001   0.00000  -0.00000   0.00000  -0.00000   0.00000  -0.00113   0.00000  -0.00000   0.00000  -0.00339   0.00000  -0.00000   0.00000   0.00005   0.00000   0.00004   0.00000  -0.00000   0.00000   0.00006   0.00000  -0.01214   0.00000  -0.00001   0.00000  -0.00311   0.00000  -0.00000   0.00000  -0.00043   0.00000  -0.00000   0.00000   0.00000   0.00000  -0.00000   0.00000   0.00000   0.00000  -0.00020   0.00000  -0.00000   0.00000  -0.00010   0.00000  -0.00000   0.00000  -0.00016   0.00000  -0.00000   0.00000  -0.00000   0.00000  -0.00000   0.00000  -0.00000   0.00000  -0.00000   0.00000  -0.00000   0.00000  -0.00000   0.00000  -0.00002   0.00000  -0.00000   0.00000  -0.00000   0.00000  -0.00000   0.00000  -0.00000   0.00000  -0.00000   0.00000  -0.00011   0.00000  -0.00000   0.00000  -0.00006   0.00000  -0.00000   0.00000  -0.00004   0.00000  -0.00000   0.00000  -0.00000   0.00000  -0.00000   0.00000  -0.00000   0.00000  -0.00000   0.00000  -0.00002   0.00000   0.00000   0.00000  -0.00004   0.00000  -0.00000   0.00000  -0.00000   0.00000  -0.00000   0.00000  -0.00000   0.00000   0.00000   0.00000  -0.00016   0.00000  -0.00000   0.00000  -0.00003   0.00000  -0.00000   0.00000  -0.00000
-29.37938   0.00000  -0.00088   0.00000  -0.03609   0.00000  -0.00002   0.00000  -0.00000   0.00000  -0.00000   0.00000  -0.00001   0.00000  -0.00365   0.00000  -0.00000   0.00000  -0.00134   0.00000  -0.00000   0.00000  -0.00122   0.00000   0.00002   0.00000  -0.00000   0.00000  -0.00000   0.00000   0.00004   0.00000  -0.00043   0.00000  -0.00000   0.00000  -0.00104   0.00000  -0.00001   0.00000  -0.00743   0.00000  -0.00000   0.00000  -0.00000   0.00000   0.00001   0.00000  -0.00000   0.00000  -0.00000   0.00000  -0.00113   0.00000  -0.00000   0.00000  -0.00339   0.00000  -0.00000   0.00000   0.00005   0.00000   0.00004   0.00000  -0.00000   0.00000   0.00006   0.00000  -0.01214   0.00000  -0.00001   0.00000  -0.00311   0.00000  -0.00000   0.00000  -0.00043   0.00000  -0.00000   0.00000   0.00000   0.00000  -0.00000   0.00000   0.00000   0.00000  -0.00020   0.00000  -0.00000   0.00000  -0.00010   0.00000  -0.00000   0.00000  -0.00016   0.00000  -0.00000   0.00000  -0.00000   0.00000  -0.00000   0.00000  -0.00000   0.00000  -0.00000   0.00000  -0.00000   0.00000  -0.00000   0.00000  -0.00002   0.00000  -0.00000   0.00000  -0.00000   0.00000  -0.00000   0.00000  -0.00000   0.00000  -0.00000   0.00000  -0.00011   0.00000  -0.00000   0.00000  -0.00006   0.00000  -0.00000   0.00000  -0.00004   0.00000  -0.00000   0.00000  -0.00000   0.00000  -0.00000   0.00000  -0.00000   0.00000  -0.00000   0.00000  -0.00002   0.00000   0.00000   0.00000  -0.00004   0.00000  -0.00000   0.00000  -0.00000   0.00000  -0.00000   0.00000  -0.00000   0.00000   0.00000   0.00000  -0.00016   0.00000  -0.00000   0.00000  -0.00003   0.00000  -0.00000   0.00000  -0.00000
-29.32933   0.00000  -0.00088   0.00000  -0.03609   0.00000  -0.00002   0.00000  -0.00000   0.00000  -0.00000   0.00000  -0.00001   0.00000  -0.00365   0.00000  -0.00000   0.00000  -0.00134   0.00000  -0.00000   0.00000  -0.00122   0.00000   0.00002   0.00000  -0.00000   0.00000  -0.00000   0.00000   0.00004   0.00000  -0.00043   0.00000  -0.00000   0.00000  -0.00104   0.00000  -0.00001   0.00000  -0.00743   0.00000  -0.00000   0.00000  -0.00000   0.00000   0.00001   0.00000  -0.00000   0.00000  -0.00000   0.00000  -0.00113   0.00000  -0.00000   0.00000  -0.00339   0.00000  -0.00000   0.00000   0.00005   0.00000   0.00004   0.00000  -0.00000   0.00000   0.00006   0.00000  -0.01214   0.00000  -0.00001   0.00000  -0.00311   0.00000  -0.00000   0.00000  -0.00043   0.00000  -0.00000   0.00000   0.00000   0.00000  -0.00000   0.00000   0.00000   0.00000  -0.00020   0.00000  -0.00000   0.00000  -0.00010   0.00000  -0.00000   0.00000  -0.00016   0.00000  -0.00000   0.00000  -0.00000   0.00000  -0.00000   0.00000  -0.00000   0.00000  -0.00000   0.00000  -0.00000   0.00000  -0.00000   0.00000  -0.00002   0.00000  -0.00000   0.00000  -0.00000   0.00000  -0.00000   0.00000  -0.00000   0.00000  -0.00000   0.00000  -0.00011   0.00000  -0.00000   0.00000  -0.00006   0.00000  -0.00000   0.00000  -0.00004   0.00000  -0.00000   0.00000  -0.00000   0.00000  -0.00000   0.00000  -0.00000   0.00000  -0.00000   0.00000  -0.00002   0.00000   0.00000   0.00000  -0.00004   0.00000  -0.00000   0.00000  -0.00000   0.00000  -0.00000   0.00000  -0.00000   0.00000   0.00000   0.00000  -0.00016   0.00000  -0.00000   0.00000  -0.00003   0.00000  -0.00000   0.00000  -0.00000