   2    2    1    1
  3.4812184e+02   5.0815146e-10   5.0815146e-10   1.5567335e-09   0.0000000e+00
            0.000000e+00
  CAR
 DOS and projected DOS file by LOBSTER. Energy is shifted such that the Fermi level lies at 0 eV. 
     18.27792352     -31.77212653  1001      -1.74209650       1.00000000
-30.03003   0.00000  10.00000
-29.97998   0.00000  10.00000
-29.92993   0.00000  10.00000
-29.87988   0.00000  10.00000
-29.82983   0.00000  10.00000
-29.77978   0.00000  10.00000
-29.72973   0.00000  10.00000
-29.67968   0.00000  10.00000
-29.62963   0.00000  10.00000
-29.57958   0.00000  10.00000
-29.52953   0.00000  10.00000
-29.47948   0.00000  10.00000
-29.42943   0.00000  10.00000
-29.37938   0.00000  10.00000
-29.32933   0.00000  10.00000
-29.27928   0.00000  10.00000
-29.22923   0.00000  10.00000
-29.17918   0.00000  10.00000
-29.12913   0.00000  10.00000
-29.07908   0.00000  10.00000
-29.02903   0.00000  10.00000
-28.97898   0.00000  10.00000
-28.92893   0.00000  10.00000
-28.87888   0.00000  10.00000
-28.82883   0.00000  10.00000
-28.77878   0.00000  10.00000
-28.72873   0.00000  10.00000
-28.67868   0.00000  10.00000
-28.62863   0.00000  10.00000
-28.57858   0.00000  10.00000
-28.52853   0.00000  10.00000
-28.47848   0.00000  10.00000
-28.42843   0.00000  10.00000
-28.37838   0.00000  10.00000
-28.32833   0.00000  10.00000
-28.27828   0.00000  10.00000
-28.22823   0.00000  10.00000
-28.17818   0.00000  10.00000
-28.12813   0.00000  10.00000
-28.07808   0.00000  10.00000
-28.02803   0.00000  10.00000
-27.97798   0.00000  10.00000
-27.92793   0.00000  10.00000
-27.87788   0.00000  10.00000
-27.82783   0.00000  10.00000
-27.77778   0.00000  10.00000
-27.72773   0.00000  10.00000
-27.67768   0.00000  10.00000
-27.62763   0.00000  10.00000
-27.57758   0.00000  10.00000
-27.52753   0.00000  10.00000
-27.47748   0.00000  10.00000
-27.42743   0.00000  10.00000
-27.37738   0.00000  10.00000
-27.32733   0.00000  10.00000
-27.27728   0.00000  10.00000
-27.22723   0.00000  10.00000
-27.17718   0.00000  10.00000
-27.12713   0.00000  10.00000
-27.07708   0.00000  10.00000
-27.02703   0.00000  10.00000
-26.97698   0.00000  10.00000
-26.92693   0.00000  10.00000
-26.87688   0.00000  10.00000
-26.82683   0.00000  10.00000
-26.77678   0.00000  10.00000
-26.72673   0.00000  10.00000
-26.67668   0.00000  10.00000
-26.62663   0.00000  10.00000
-26.57658   0.00000  10.00000
-26.52653   0.00000  10.00000
-26.47648   0.00000  10.00000
-26.42643   0.00000  10.00000
-26.37638   0.00000  10.00000
-26.32633   0.00000  10.00000
-26.27628   0.00000  10.00000
-26.22623   0.00000  10.00000
-26.17618   0.00000  10.00000
-26.12613   0.00000  10.00000
-26.07608   0.00000  10.00000
-26.02603   0.00000  10.00000
-25.97598   0.00000  10.00000
-25.92593   0.00000  10.00000
-25.87588   0.00000  10.00000
-25.82583   0.00000  10.00000
-25.77578   0.00000  10.00000
-25.72573   0.00000  10.00000
-25.67568   0.00000  10.00000
-25.62563   0.00000  10.00000
-25.57558   0.00000  10.00000
-25.52553   0.00000  10.00000
-25.47548   0.00000  10.00000
-25.42543   0.00000  10.00000
-25.37538   0.00000  10.00000
-25.32533   0.00000  10.00000
-25.27528   0.00000  10.00000
-25.22523   0.00000  10.00000
-25.17518   0.00000  10.00000
-25.12513   0.00000  10.00000
-25.07508   0.00000  10.00000
-25.02503   0.00000  10.00000
-24.97497   0.00000  10.00000
-24.92492   0.00000  10.00000
-24.87487   0.00000  10.00000
-24.82482   0.00000  10.00000
-24.77477   0.00000  10.00000
-24.72472   0.00000  10.00000
-24.67467   0.00000  10.00000
-24.62462   0.00000  10.00000
-24.57457   0.00000  10.00000
-24.52452   0.00000  10.00000
-24.47447   0.00000  10.00000
-24.42442   0.00000  10.00000
-24.37437   0.00000  10.00000
-24.32432   0.00000  10.00000
-24.27427   0.00000  10.00000
-24.22422   0.00000  10.00000
-24.17417   0.00000  10.00000
-24.12412   0.00000  10.00000
-24.07407   0.00000  10.00000
-24.02402   0.00000  10.00000
-23.97397   0.00000  10.00000
-23.92392   0.00000  10.00000
-23.87387   0.00000  10.00000
-23.82382   0.00000  10.00000
-23.77377   0.00000  10.00000
-23.72372   0.00000  10.00000
-23.67367   0.00000  10.00000
-23.62362   0.00000  10.00000
-23.57357   0.00000  10.00000
-23.52352   0.00000  10.00000
-23.47347   0.00000  10.00000
-23.42342   0.00000  10.00000
-23.37337   0.00000  10.00000
-23.32332   0.00000  10.00000
-23.27327   0.00000  10.00000
-23.22322   0.00000  10.00000
-23.17317   0.00000  10.00000
-23.12312   0.00000  10.00000
-23.07307   0.00000  10.00000
-23.02302   0.00000  10.00000
-22.97297   0.00000  10.00000
-22.92292   0.00000  10.00000
-22.87287   0.00000  10.00000
-22.82282   0.00000  10.00000
-22.77277   0.00000  10.00000
-22.72272   0.00000  10.00000
-22.67267   0.00000  10.00000
-22.62262   0.00001  10.00000
-22.57257   0.00003  10.00000
-22.52252   0.00018  10.00001
-22.47247   0.00092  10.00006
-22.42242   0.00411  10.00026
-22.37237   0.01632  10.00108
-22.32232   0.05750  10.00396
-22.27227   0.17993  10.01296
-22.22222   0.50037  10.03801
-22.17217   1.23724  10.09993
-22.12212   2.72129  10.23613
-22.07207   5.32662  10.50273
-22.02202   9.28234  10.96731
-21.97197  14.40605  11.68833
-21.92192  19.91762  12.68521
-21.87187  24.53711  13.91330
-21.82182  26.93705  15.26150
-21.77177  26.35249  16.58044
-21.72172  22.97190  17.73018
-21.67167  17.83986  18.62307
-21.62162  12.33898  19.24064
-21.57157   7.59802  19.62092
-21.52152   4.16356  19.82930
-21.47147   2.02937  19.93087
-21.42142   0.87936  19.97489
-21.37137   0.33857  19.99183
-21.32132   0.11576  19.99763
-21.27127   0.03513  19.99938
-21.22122   0.00946  19.99986
-21.17117   0.00226  19.99997
-21.12112   0.00048  19.99999
-21.07107   0.00009  20.00000
-21.02102   0.00001  20.00000
-20.97097   0.00000  20.00000
-20.92092   0.00000  20.00000
-20.87087   0.00000  20.00000
-20.82082   0.00000  20.00000
-20.77077   0.00000  20.00000
-20.72072   0.00000  20.00000
-20.67067   0.00000  20.00000
-20.62062   0.00000  20.00000
-20.57057   0.00000  20.00000
-20.52052   0.00000  20.00000
-20.47047   0.00000  20.00000
-20.42042   0.00000  20.00000
-20.37037   0.00000  20.00000
-20.32032   0.00000  20.00000
-20.27027   0.00000  20.00000
-20.22022   0.00000  20.00000
-20.17017   0.00000  20.00000
-20.12012   0.00000  20.00000
-20.07007   0.00000  20.00000
-20.02002   0.00000  20.00000
-19.96997   0.00000  20.00000
-19.91992   0.00000  20.00000
-19.86987   0.00000  20.00000
-19.81982   0.00000  20.00000
-19.76977   0.00000  20.00000
-19.71972   0.00000  20.00000
-19.66967   0.00000  20.00000
-19.61962   0.00000  20.00000
-19.56957   0.00000  20.00000
-19.51952   0.00000  20.00000
-19.46947   0.00000  20.00000
-19.41942   0.00000  20.00000
-19.36937   0.00000  20.00000
-19.31932   0.00000  20.00000
-19.26927   0.00000  20.00000
-19.21922   0.00000  20.00000
-19.16917   0.00000  20.00000
-19.11912   0.00000  20.00000
-19.06907   0.00000  20.00000
-19.01902   0.00000  20.00000
-18.96897   0.00000  20.00000
-18.91892   0.00000  20.00000
-18.86887   0.00000  20.00000
-18.81882   0.00000  20.00000
-18.76877   0.00000  20.00000
-18.71872   0.00000  20.00000
-18.66867   0.00000  20.00000
-18.61862   0.00000  20.00000
-18.56857   0.00000  20.00000
-18.51852   0.00000  20.00000
-18.46847   0.00000  20.00000
-18.41842   0.00000  20.00000
-18.36837   0.00000  20.00000
-18.31832   0.00000  20.00000
-18.26827   0.00000  20.00000
-18.21822   0.00000  20.00000
-18.16817   0.00000  20.00000
-18.11812   0.00000  20.00000
-18.06807   0.00000  20.00000
-18.01802   0.00000  20.00000
-17.96797   0.00000  20.00000
-17.91792   0.00000  20.00000
-17.86787   0.00000  20.00000
-17.81782   0.00000  20.00000
-17.76777   0.00000  20.00000
-17.71772   0.00000  20.00000
-17.66767   0.00000  20.00000
-17.61762   0.00000  20.00000
-17.56757   0.00000  20.00000
-17.51752   0.00000  20.00000
-17.46747   0.00000  20.00000
-17.41742   0.00000  20.00000
-17.36737   0.00000  20.00000
-17.31732   0.00000  20.00000
-17.26727   0.00000  20.00000
-17.21722   0.00000  20.00000
-17.16717   0.00000  20.00000
-17.11712   0.00000  20.00000
-17.06707   0.00000  20.00000
-17.01702   0.00000  20.00000
-16.96697   0.00000  20.00000
-16.91692   0.00000  20.00000
-16.86687   0.00000  20.00000
-16.81682   0.00000  20.00000
-16.76677   0.00000  20.00000
-16.71672   0.00000  20.00000
-16.66667   0.00000  20.00000
-16.61662   0.00000  20.00000
-16.56657   0.00000  20.00000
-16.51652   0.00000  20.00000
-16.46647   0.00000  20.00000
-16.41642   0.00000  20.00000
-16.36637   0.00000  20.00000
-16.31632   0.00000  20.00000
-16.26627   0.00000  20.00000
-16.21622   0.00000  20.00000
-16.16617   0.00000  20.00000
-16.11612   0.00000  20.00000
-16.06607   0.00000  20.00000
-16.01602   0.00000  20.00000
-15.96597   0.00000  20.00000
-15.91592   0.00000  20.00000
-15.86587   0.00000  20.00000
-15.81582   0.00000  20.00000
-15.76577   0.00000  20.00000
-15.71572   0.00000  20.00000
-15.66567   0.00000  20.00000
-15.61562   0.00000  20.00000
-15.56557   0.00000  20.00000
-15.51552   0.00000  20.00000
-15.46547   0.00000  20.00000
-15.41542   0.00000  20.00000
-15.36537   0.00000  20.00000
-15.31532   0.00000  20.00000
-15.26527   0.00000  20.00000
-15.21522   0.00000  20.00000
-15.16517   0.00000  20.00000
-15.11512   0.00000  20.00000
-15.06507   0.00000  20.00000
-15.01502   0.00000  20.00000
-14.96496   0.00000  20.00000
-14.91491   0.00000  20.00000
-14.86486   0.00000  20.00000
-14.81481   0.00000  20.00000
-14.76476   0.00000  20.00000
-14.71471   0.00000  20.00000
-14.66466   0.00000  20.00000
-14.61461   0.00000  20.00000
-14.56456   0.00000  20.00000
-14.51451   0.00000  20.00000
-14.46446   0.00000  20.00000
-14.41441   0.00000  20.00000
-14.36436   0.00000  20.00000
-14.31431   0.00000  20.00000
-14.26426   0.00000  20.00000
-14.21421   0.00000  20.00000
-14.16416   0.00000  20.00000
-14.11411   0.00000  20.00000
-14.06406   0.00000  20.00000
-14.01401   0.00000  20.00000
-13.96396   0.00000  20.00000
-13.91391   0.00000  20.00000
-13.86386   0.00000  20.00000
-13.81381   0.00000  20.00000
-13.76376   0.00000  20.00000
-13.71371   0.00000  20.00000
-13.66366   0.00000  20.00000
-13.61361   0.00000  20.00000
-13.56356   0.00000  20.00000
-13.51351   0.00000  20.00000
-13.46346   0.00000  20.00000
-13.41341   0.00000  20.00000
-13.36336   0.00000  20.00000
-13.31331   0.00000  20.00000
-13.26326   0.00000  20.00000
-13.21321   0.00000  20.00000
-13.16316   0.00000  20.00000
-13.11311   0.00000  20.00000
-13.06306   0.00000  20.00000
-13.01301   0.00000  20.00000
-12.96296   0.00000  20.00000
-12.91291   0.00000  20.00000
-12.86286   0.00000  20.00000
-12.81281   0.00000  20.00000
-12.76276   0.00000  20.00000
-12.71271   0.00000  20.00000
-12.66266   0.00000  20.00000
-12.61261   0.00000  20.00000
-12.56256   0.00000  20.00000
-12.51251   0.00000  20.00000
-12.46246   0.00000  20.00000
-12.41241   0.00000  20.00000
-12.36236   0.00001  20.00000
-12.31231   0.00004  20.00000
-12.26226   0.00015  20.00001
-12.21221   0.00059  20.00004
-12.16216   0.00202  20.00014
-12.11211   0.00616  20.00045
-12.06206   0.01679  20.00129
-12.01201   0.04094  20.00334
-11.96196   0.08956  20.00782
-11.91191   0.17635  20.01665
-11.86186   0.31393  20.03236
-11.81181   0.50798  20.05778
-11.76176   0.75252  20.09545
-11.71171   1.02986  20.14699
-11.66166   1.31696  20.21291
-11.61161   1.59541  20.29276
-11.56156   1.85976  20.38584
-11.51151   2.11914  20.49190
-11.46146   2.39058  20.61155
-11.41141   2.68555  20.74596
-11.36136   2.99402  20.89581
-11.31131   3.27347  21.05965
-11.26126   3.45204  21.23242
-11.21121   3.45123  21.40516
-11.16116   3.22204  21.56642
-11.11111   2.77526  21.70532
-11.06106   2.18536  21.81470
-11.01101   1.56264  21.89291
-10.96096   1.00960  21.94344
-10.91091   0.58721  21.97283
-10.86086   0.30660  21.98818
-10.81081   0.14340  21.99535
-10.76076   0.05998  21.99836
-10.71071   0.02240  21.99948
-10.66066   0.00746  21.99985
-10.61061   0.00222  21.99996
-10.56056   0.00059  21.99999
-10.51051   0.00014  22.00000
-10.46046   0.00003  22.00000
-10.41041   0.00001  22.00000
-10.36036   0.00000  22.00000
-10.31031   0.00000  22.00000
-10.26026   0.00000  22.00000
-10.21021   0.00000  22.00000
-10.16016   0.00000  22.00000
-10.11011   0.00000  22.00000
-10.06006   0.00000  22.00000
-10.01001   0.00000  22.00000
 -9.95996   0.00000  22.00000
 -9.90991   0.00000  22.00000
 -9.85986   0.00000  22.00000
 -9.80981   0.00000  22.00000
 -9.75976   0.00000  22.00000
 -9.70971   0.00000  22.00000
 -9.65966   0.00000  22.00000
 -9.60961   0.00000  22.00000
 -9.55956   0.00000  22.00000
 -9.50951   0.00000  22.00000
 -9.45946   0.00000  22.00000
 -9.40941   0.00000  22.00000
 -9.35936   0.00000  22.00000
 -9.30931   0.00000  22.00000
 -9.25926   0.00000  22.00000
 -9.20921   0.00000  22.00000
 -9.15916   0.00000  22.00000
 -9.10911   0.00000  22.00000
 -9.05906   0.00000  22.00000
 -9.00901   0.00000  22.00000
 -8.95896   0.00000  22.00000
 -8.90891   0.00000  22.00000
 -8.85886   0.00000  22.00000
 -8.80881   0.00000  22.00000
 -8.75876   0.00000  22.00000
 -8.70871   0.00000  22.00000
 -8.65866   0.00000  22.00000
 -8.60861   0.00000  22.00000
 -8.55856   0.00000  22.00000
 -8.50851   0.00000  22.00000
 -8.45846   0.00000  22.00000
 -8.40841   0.00002  22.00000
 -8.35836   0.00009  22.00001
 -8.30831   0.00036  22.00002
 -8.25826   0.00134  22.00009
 -8.20821   0.00440  22.00031
 -8.15816   0.01295  22.00096
 -8.10811   0.03407  22.00266
 -8.05806   0.08041  22.00669
 -8.00801   0.17055  22.01522
 -7.95796   0.32595  22.03154
 -7.90791   0.56286  22.05971
 -7.85786   0.88100  22.10380
 -7.80781   1.25436  22.16658
 -7.75776   1.63135  22.24823
 -7.70771   1.94792  22.34573
 -7.65766   2.14929  22.45330
 -7.60761   2.20984  22.56390
 -7.55756   2.14037  22.67103
 -7.50751   1.97953  22.77010
 -7.45746   1.77583  22.85898
 -7.40741   1.57037  22.93758
 -7.35736   1.38797  23.00705
 -7.30731   1.23748  23.06898
 -7.25726   1.11734  23.12491
 -7.20721   1.02158  23.17604
 -7.15716   0.94389  23.22328
 -7.10711   0.87920  23.26728
 -7.05706   0.82398  23.30852
 -7.00701   0.77587  23.34736
 -6.95696   0.73328  23.38406
 -6.90691   0.69512  23.41885
 -6.85686   0.66057  23.45191
 -6.80681   0.62904  23.48339
 -6.75676   0.60007  23.51343
 -6.70671   0.57329  23.54212
 -6.65666   0.54841  23.56957
 -6.60661   0.52517  23.59585
 -6.55656   0.50340  23.62105
 -6.50651   0.48290  23.64522
 -6.45646   0.46356  23.66842
 -6.40641   0.44524  23.69070
 -6.35636   0.42784  23.71211
 -6.30631   0.41127  23.73270
 -6.25626   0.39546  23.75249
 -6.20621   0.38034  23.77153
 -6.15616   0.36585  23.78984
 -6.10611   0.35193  23.80745
 -6.05606   0.33855  23.82440
 -6.00601   0.32565  23.84070
 -5.95596   0.31320  23.85637
 -5.90591   0.30116  23.87144
 -5.85586   0.28949  23.88593
 -5.80581   0.27811  23.89985
 -5.75576   0.26688  23.91321
 -5.70571   0.25550  23.92600
 -5.65566   0.24339  23.93818
 -5.60561   0.22963  23.94967
 -5.55556   0.21301  23.96033
 -5.50551   0.19234  23.96996
 -5.45546   0.16707  23.97832
 -5.40541   0.13784  23.98522
 -5.35536   0.10671  23.99056
 -5.30531   0.07666  23.99440
 -5.25526   0.05064  23.99693
 -5.20521   0.03052  23.99846
 -5.15516   0.01668  23.99930
 -5.10511   0.00823  23.99971
 -5.05506   0.00365  23.99989
 -5.00501   0.00145  23.99996
 -4.95495   0.00052  23.99999
 -4.90490   0.00016  24.00000
 -4.85485   0.00005  24.00000
 -4.80480   0.00001  24.00000
 -4.75475   0.00001  24.00000
 -4.70470   0.00004  24.00000
 -4.65465   0.00018  24.00001
 -4.60460   0.00068  24.00005
 -4.55455   0.00222  24.00016
 -4.50450   0.00650  24.00048
 -4.45445   0.01699  24.00133
 -4.40440   0.03975  24.00332
 -4.35435   0.08347  24.00750
 -4.30430   0.15791  24.01540
 -4.25425   0.27028  24.02893
 -4.20420   0.42093  24.05000
 -4.15415   0.60075  24.08007
 -4.10410   0.79272  24.11974
 -4.05405   0.97766  24.16867
 -4.00400   1.14120  24.22579
 -3.95395   1.27839  24.28977
 -3.90390   1.39378  24.35953
 -3.85385   1.49794  24.43451
 -3.80380   1.60249  24.51471
 -3.75375   1.71530  24.60056
 -3.70370   1.83669  24.69249
 -3.65365   1.95719  24.79044
 -3.60360   2.05839  24.89347
 -3.55355   2.11812  24.99948
 -3.50350   2.11888  25.10553
 -3.45345   2.05569  25.20842
 -3.40340   1.93864  25.30545
 -3.35335   1.78866  25.39497
 -3.30330   1.62910  25.47650
 -3.25325   1.47813  25.55049
 -3.20320   1.34520  25.61781
 -3.15315   1.23175  25.67946
 -3.10310   1.13411  25.73622
 -3.05305   1.04656  25.78860
 -3.00300   0.96416  25.83686
 -2.95295   0.88539  25.88117
 -2.90290   0.81467  25.92195
 -2.85285   0.76337  25.96016
 -2.80280   0.74736  25.99756
 -2.75275   0.78068  26.03663
 -2.70270   0.86800  26.08008
 -2.65265   1.00031  26.13014
 -2.60260   1.15738  26.18807
 -2.55255   1.31570  26.25392
 -2.50250   1.45739  26.32686
 -2.45245   1.57502  26.40569
 -2.40240   1.67105  26.48933
 -2.35235   1.75379  26.57711
 -2.30230   1.83328  26.66886
 -2.25225   1.91908  26.76491
 -2.20220   2.01993  26.86601
 -2.15215   2.14391  26.97331
 -2.10210   2.29736  27.08830
 -2.05205   2.48138  27.21249
 -2.00200   2.68617  27.34693
 -1.95195   2.88616  27.49138
 -1.90190   3.04057  27.64356
 -1.85185   3.10319  27.79888
 -1.80180   3.03990  27.95103
 -1.75175   2.84628  28.09348
 -1.70170   2.55519  28.22137
 -1.65165   2.22820  28.33289
 -1.60160   1.93375  28.42968
 -1.55155   1.72207  28.51587
 -1.50150   1.60876  28.59638
 -1.45145   1.57389  28.67516
 -1.40140   1.57596  28.75404
 -1.35135   1.57245  28.83274
 -1.30130   1.53653  28.90964
 -1.25125   1.46298  28.98286
 -1.20120   1.36301  29.05108
 -1.15115   1.25390  29.11384
 -1.10110   1.15009  29.17140
 -1.05105   1.05926  29.22442
 -1.00100   0.98304  29.27362
 -0.95095   0.91959  29.31964
 -0.90090   0.86599  29.36299
 -0.85085   0.81961  29.40401
 -0.80080   0.77854  29.44297
 -0.75075   0.74148  29.48008
 -0.70070   0.70750  29.51549
 -0.65065   0.67597  29.54933
 -0.60060   0.64651  29.58168
 -0.55055   0.61894  29.61266
 -0.50050   0.59327  29.64236
 -0.45045   0.57013  29.67089
 -0.40040   0.55158  29.69850
 -0.35035   0.54234  29.72564
 -0.30030   0.55118  29.75323
 -0.25025   0.59179  29.78285
 -0.20020   0.68163  29.81696
 -0.15015   0.83721  29.85887
 -0.10010   1.06602  29.91222
 -0.05005   1.35814  29.98019
 -0.00000   1.68233  30.06439
  0.05005   1.99043  30.16402
  0.10010   2.23024  30.27564
  0.15015   2.36213  30.39386
  0.20020   2.37177  30.51257
  0.25025   2.27286  30.62633
  0.30030   2.09906  30.73139
  0.35035   1.89028  30.82599
  0.40040   1.68048  30.91010
  0.45045   1.49151  30.98475
  0.50050   1.33312  31.05148
  0.55055   1.20619  31.11185
  0.60060   1.10674  31.16724
  0.65065   1.02890  31.21873
  0.70070   0.96687  31.26713
  0.75075   0.91592  31.31297
  0.80080   0.87261  31.35664
  0.85085   0.83475  31.39842
  0.90090   0.80117  31.43852
  0.95095   0.77181  31.47715
  1.00100   0.74830  31.51460
  1.05105   0.73542  31.55141
  1.10110   0.74316  31.58860
  1.15115   0.78811  31.62805
  1.20120   0.89164  31.67268
  1.25125   1.07244  31.72635
  1.30130   1.33404  31.79312
  1.35135   1.65362  31.87588
  1.40140   1.98177  31.97507
  1.45145   2.25830  32.08810
  1.50150   2.43781  32.21011
  1.55155   2.50933  32.33571
  1.60160   2.49716  32.46069
  1.65165   2.44286  32.58295
  1.70170   2.38135  32.70214
  1.75175   2.32595  32.81855
  1.80180   2.26882  32.93211
  1.85185   2.19310  33.04187
  1.90190   2.08721  33.14634
  1.95195   1.95269  33.24407
  2.00200   1.80272  33.33430
  2.05205   1.65467  33.41711
  2.10210   1.52237  33.49331
  2.15215   1.41233  33.56400
  2.20220   1.32444  33.63028
  2.25225   1.25478  33.69309
  2.30230   1.19857  33.75307
  2.35235   1.15184  33.81072
  2.40240   1.11189  33.86637
  2.45245   1.07688  33.92027
  2.50250   1.04552  33.97260
  2.55255   1.01698  34.02350
  2.60260   0.99087  34.07309
  2.65265   0.96695  34.12149
  2.70270   0.94483  34.16878
  2.75275   0.92404  34.21503
  2.80280   0.90440  34.26029
  2.85285   0.88601  34.30464
  2.90290   0.86882  34.34812
  2.95295   0.85215  34.39077
  3.00300   0.83499  34.43256
  3.05305   0.81637  34.47342
  3.10310   0.79510  34.51322
  3.15315   0.76926  34.55172
  3.20320   0.73670  34.58859
  3.25325   0.69696  34.62347
  3.30330   0.65267  34.65614
  3.35335   0.60884  34.68661
  3.40340   0.57069  34.71517
  3.45345   0.54197  34.74230
  3.50350   0.52479  34.76856
  3.55355   0.51988  34.79458
  3.60360   0.52647  34.82093
  3.65365   0.54265  34.84809
  3.70370   0.56691  34.87647
  3.75375   0.59996  34.90650
  3.80380   0.64549  34.93880
  3.85385   0.70952  34.97432
  3.90390   0.79894  35.01430
  3.95395   0.91918  35.06031
  4.00400   1.07089  35.11390
  4.05405   1.24647  35.17629
  4.10410   1.42900  35.24781
  4.15415   1.59487  35.32764
  4.20420   1.71938  35.41369
  4.25425   1.78239  35.50290
  4.30430   1.77220  35.59160
  4.35435   1.68698  35.67603
  4.40440   1.53445  35.75283
  4.45445   1.33035  35.81941
  4.50450   1.09584  35.87426
  4.55455   0.85415  35.91701
  4.60460   0.62685  35.94839
  4.65465   0.43064  35.96994
  4.70470   0.27515  35.98371
  4.75475   0.16241  35.99184
  4.80480   0.08798  35.99624
  4.85485   0.04348  35.99842
  4.90490   0.01949  35.99940
  4.95495   0.00789  35.99979
  5.00501   0.00288  35.99993
  5.05506   0.00094  35.99998
  5.10511   0.00028  36.00000
  5.15516   0.00007  36.00000
  5.20521   0.00002  36.00000
  5.25526   0.00000  36.00000
  5.30531   0.00000  36.00000
  5.35536   0.00000  36.00000
  5.40541   0.00000  36.00000
  5.45546   0.00000  36.00000
  5.50551   0.00000  36.00000
  5.55556   0.00000  36.00000
  5.60561   0.00000  36.00000
  5.65566   0.00000  36.00000
  5.70571   0.00000  36.00000
  5.75576  -0.00000  36.00000
  5.80581   0.00000  36.00000
  5.85586   0.00000  36.00000
  5.90591   0.00000  36.00000
  5.95596   0.00000  36.00000
  6.00601   0.00000  36.00000
  6.05606   0.00000  36.00000
  6.10611   0.00000  36.00000
  6.15616   0.00000  36.00000
  6.20621   0.00000  36.00000
  6.25626   0.00000  36.00000
  6.30631   0.00000  36.00000
  6.35636   0.00000  36.00000
  6.40641   0.00000  36.00000
  6.45646   0.00000  36.00000
  6.50651   0.00000  36.00000
  6.55656   0.00000  36.00000
  6.60661   0.00000  36.00000
  6.65666   0.00000  36.00000
  6.70671   0.00000  36.00000
  6.75676   0.00000  36.00000
  6.80681   0.00000  36.00000
  6.85686   0.00000  36.00000
  6.90691   0.00000  36.00000
  6.95696   0.00000  36.00000
  7.00701   0.00000  36.00000
  7.05706   0.00000  36.00000
  7.10711   0.00000  36.00000
  7.15716   0.00000  36.00000
  7.20721   0.00000  36.00000
  7.25726   0.00000  36.00000
  7.30731   0.00000  36.00000
  7.35736   0.00000  36.00000
  7.40741   0.00000  36.00000
  7.45746   0.00000  36.00000
  7.50751   0.00000  36.00000
  7.55756   0.00000  36.00000
  7.60761   0.00000  36.00000
  7.65766   0.00000  36.00000
  7.70771   0.00000  36.00000
  7.75776   0.00000  36.00000
  7.80781   0.00000  36.00000
  7.85786   0.00000  36.00000
  7.90791   0.00000  36.00000
  7.95796   0.00000  36.00000
  8.00801   0.00000  36.00000
  8.05806   0.00000  36.00000
  8.10811   0.00000  36.00000
  8.15816   0.00000  36.00000
  8.20821   0.00000  36.00000
  8.25826   0.00000  36.00000
  8.30831   0.00000  36.00000
  8.35836   0.00000  36.00000
  8.40841   0.00000  36.00000
  8.45846   0.00000  36.00000
  8.50851   0.00000  36.00000
  8.55856   0.00000  36.00000
  8.60861   0.00000  36.00000
  8.65866   0.00000  36.00000
  8.70871   0.00000  36.00000
  8.75876   0.00000  36.00000
  8.80881   0.00000  36.00000
  8.85886   0.00000  36.00000
  8.90891   0.00000  36.00000
  8.95896   0.00000  36.00000
  9.00901   0.00000  36.00000
  9.05906   0.00000  36.00000
  9.10911   0.00000  36.00000
  9.15916   0.00000  36.00000
  9.20921   0.00000  36.00000
  9.25926   0.00000  36.00000
  9.30931   0.00000  36.00000
  9.35936   0.00000  36.00000
  9.40941   0.00000  36.00000
  9.45946   0.00000  36.00000
  9.50951   0.00000  36.00000
  9.55956   0.00000  36.00000
  9.60961   0.00000  36.00000
  9.65966   0.00000  36.00000
  9.70971   0.00000  36.00000
  9.75976   0.00000  36.00000
  9.80981   0.00000  36.00000
  9.85986   0.00000  36.00000
  9.90991   0.00000  36.00000
  9.95996   0.00000  36.00000
 10.01001   0.00000  36.00000
 10.06006   0.00000  36.00000
 10.11011   0.00000  36.00000
 10.16016   0.00000  36.00000
 10.21021   0.00000  36.00000
 10.26026   0.00000  36.00000
 10.31031   0.00000  36.00000
 10.36036   0.00000  36.00000
 10.41041   0.00000  36.00000
 10.46046   0.00000  36.00000
 10.51051   0.00000  36.00000
 10.56056   0.00000  36.00000
 10.61061   0.00000  36.00000
 10.66066   0.00000  36.00000
 10.71071   0.00000  36.00000
 10.76076   0.00000  36.00000
 10.81081   0.00000  36.00000
 10.86086   0.00000  36.00000
 10.91091   0.00000  36.00000
 10.96096   0.00000  36.00000
 11.01101   0.00000  36.00000
 11.06106   0.00000  36.00000
 11.11111   0.00000  36.00000
 11.16116   0.00000  36.00000
 11.21121   0.00000  36.00000
 11.26126   0.00000  36.00000
 11.31131   0.00000  36.00000
 11.36136   0.00000  36.00000
 11.41141   0.00000  36.00000
 11.46146   0.00000  36.00000
 11.51151   0.00000  36.00000
 11.56156   0.00000  36.00000
 11.61161   0.00000  36.00000
 11.66166   0.00000  36.00000
 11.71171   0.00000  36.00000
 11.76176   0.00000  36.00000
 11.81181   0.00000  36.00000
 11.86186   0.00000  36.00000
 11.91191   0.00000  36.00000
 11.96196   0.00000  36.00000
 12.01201   0.00000  36.00000
 12.06206   0.00000  36.00000
 12.11211   0.00000  36.00000
 12.16216   0.00000  36.00000
 12.21221   0.00000  36.00000
 12.26226   0.00000  36.00000
 12.31231   0.00000  36.00000
 12.36236   0.00000  36.00000
 12.41241   0.00000  36.00000
 12.46246   0.00000  36.00000
 12.51251   0.00000  36.00000
 12.56256   0.00000  36.00000
 12.61261   0.00000  36.00000
 12.66266   0.00000  36.00000
 12.71271   0.00000  36.00000
 12.76276   0.00000  36.00000
 12.81281   0.00000  36.00000
 12.86286   0.00000  36.00000
 12.91291   0.00000  36.00000
 12.96296   0.00000  36.00000
 13.01301   0.00000  36.00000
 13.06306   0.00000  36.00000
 13.11311   0.00000  36.00000
 13.16316   0.00000  36.00000
 13.21321   0.00000  36.00000
 13.26326   0.00000  36.00000
 13.31331   0.00000  36.00000
 13.36336   0.00000  36.00000
 13.41341   0.00000  36.00000
 13.46346   0.00000  36.00000
 13.51351   0.00000  36.00000
 13.56356   0.00000  36.00000
 13.61361   0.00000  36.00000
 13.66366   0.00000  36.00000
 13.71371   0.00000  36.00000
 13.76376   0.00000  36.00000
 13.81381   0.00000  36.00000
 13.86386   0.00000  36.00000
 13.91391   0.00000  36.00000
 13.96396   0.00000  36.00000
 14.01401   0.00000  36.00000
 14.06406   0.00000  36.00000
 14.11411   0.00000  36.00000
 14.16416   0.00000  36.00000
 14.21421   0.00000  36.00000
 14.26426   0.00000  36.00000
 14.31431   0.00000  36.00000
 14.36436   0.00000  36.00000
 14.41441   0.00000  36.00000
 14.46446   0.00000  36.00000
 14.51451   0.00000  36.00000
 14.56456   0.00000  36.00000
 14.61461   0.00000  36.00000
 14.66466   0.00000  36.00000
 14.71471   0.00000  36.00000
 14.76476   0.00000  36.00000
 14.81481   0.00000  36.00000
 14.86486   0.00000  36.00000
 14.91491   0.00000  36.00000
 14.96496   0.00000  36.00000
 15.01502   0.00000  36.00000
 15.06507   0.00000  36.00000
 15.11512   0.00000  36.00000
 15.16517   0.00000  36.00000
 15.21522   0.00000  36.00000
 15.26527   0.00000  36.00000
 15.31532   0.00000  36.00000
 15.36537   0.00000  36.00000
 15.41542   0.00000  36.00000
 15.46547   0.00000  36.00000
 15.51552   0.00000  36.00000
 15.56557   0.00000  36.00000
 15.61562   0.00000  36.00000
 15.66567   0.00000  36.00000
 15.71572   0.00000  36.00000
 15.76577   0.00000  36.00000
 15.81582   0.00000  36.00000
 15.86587   0.00000  36.00000
 15.91592   0.00000  36.00000
 15.96597   0.00000  36.00000
 16.01602   0.00000  36.00000
 16.06607   0.00000  36.00000
 16.11612   0.00000  36.00000
 16.16617   0.00000  36.00000
 16.21622   0.00000  36.00000
 16.26627   0.00000  36.00000
 16.31632   0.00000  36.00000
 16.36637   0.00000  36.00000
 16.41642   0.00000  36.00000
 16.46647   0.00000  36.00000
 16.51652   0.00000  36.00000
 16.56657   0.00000  36.00000
 16.61662   0.00000  36.00000
 16.66667   0.00000  36.00000
 16.71672   0.00000  36.00000
 16.76677   0.00000  36.00000
 16.81682   0.00000  36.00000
 16.86687   0.00000  36.00000
 16.91692   0.00000  36.00000
 16.96697   0.00000  36.00000
 17.01702   0.00000  36.00000
 17.06707   0.00000  36.00000
 17.11712   0.00000  36.00000
 17.16717   0.00000  36.00000
 17.21722   0.00000  36.00000
 17.26727   0.00000  36.00000
 17.31732   0.00000  36.00000
 17.36737   0.00000  36.00000
 17.41742   0.00000  36.00000
 17.46747   0.00000  36.00000
 17.51752   0.00000  36.00000
 17.56757   0.00000  36.00000
 17.61762   0.00000  36.00000
 17.66767   0.00000  36.00000
 17.71772   0.00000  36.00000
 17.76777   0.00000  36.00000
 17.81782   0.00000  36.00000
 17.86787   0.00000  36.00000
 17.91792   0.00000  36.00000
 17.96797   0.00000  36.00000
 18.01802   0.00000  36.00000
 18.06807   0.00000  36.00000
 18.11812   0.00000  36.00000
 18.16817   0.00000  36.00000
 18.21822   0.00000  36.00000
 18.26827   0.00000  36.00000
 18.31832   0.00000  36.00000
 18.36837   0.00000  36.00000
 18.41842   0.00000  36.00000
 18.46847   0.00000  36.00000
 18.51852   0.00000  36.00000
 18.56857   0.00000  36.00000
 18.61862   0.00000  36.00000
 18.66867   0.00000  36.00000
 18.71872   0.00000  36.00000
 18.76877   0.00000  36.00000
 18.81882   0.00000  36.00000
 18.86887   0.00000  36.00000
 18.91892   0.00000  36.00000
 18.96897   0.00000  36.00000
 19.01902   0.00000  36.00000
 19.06907   0.00000  36.00000
 19.11912   0.00000  36.00000
 19.16917   0.00000  36.00000
 19.21922   0.00000  36.00000
 19.26927   0.00000  36.00000
 19.31932   0.00000  36.00000
 19.36937   0.00000  36.00000
 19.41942   0.00000  36.00000