  COHP#       atomMU       atomNU     distance     translation      ICOHP (at) eF   for spin  1
      1          Sn1          Te2      2.93381       0   0   0           -2.63876 
      1       Sn1_5s       Te2_5s      2.93381       0   0   0            0.03112 
      1       Sn1_5s     Te2_5p_y      2.93381       0   0   0           -0.06593 
      1       Sn1_5s     Te2_5p_z      2.93381       0   0   0           -0.00000 
      1       Sn1_5s     Te2_5p_x      2.93381       0   0   0           -0.19780 
      1       Sn1_5s    Te2_4d_xy      2.93381       0   0   0           -0.00030 
      1       Sn1_5s    Te2_4d_yz      2.93381       0   0   0           -0.00000 
      1       Sn1_5s   Te2_4d_z^2      2.93381       0   0   0            0.00018 
      1       Sn1_5s    Te2_4d_xz      2.93381       0   0   0           -0.00000 
      1       Sn1_5s Te2_4d_x^2-y^2      2.93381       0   0   0           -0.00010 
      1     Sn1_5p_y       Te2_5s      2.93381       0   0   0           -0.14449 
      1     Sn1_5p_y     Te2_5p_y      2.93381       0   0   0            0.00055 
      1     Sn1_5p_y     Te2_5p_z      2.93381       0   0   0           -0.00000 
      1     Sn1_5p_y     Te2_5p_x      2.93381       0   0   0           -0.45125 
      1     Sn1_5p_y    Te2_4d_xy      2.93381       0   0   0           -0.00037 
      1     Sn1_5p_y    Te2_4d_yz      2.93381       0   0   0           -0.00000 
      1     Sn1_5p_y   Te2_4d_z^2      2.93381       0   0   0           -0.00060 
      1     Sn1_5p_y    Te2_4d_xz      2.93381       0   0   0           -0.00001 
      1     Sn1_5p_y Te2_4d_x^2-y^2      2.93381       0   0   0           -0.00500 
      1     Sn1_5p_z       Te2_5s      2.93381       0   0   0           -0.00000 
      1     Sn1_5p_z     Te2_5p_y      2.93381       0   0   0           -0.00000 
      1     Sn1_5p_z     Te2_5p_z      2.93381       0   0   0           -0.28846 
      1     Sn1_5p_z     Te2_5p_x      2.93381       0   0   0           -0.00000 
      1     Sn1_5p_z    Te2_4d_xy      2.93381       0   0   0           -0.00000 
      1     Sn1_5p_z    Te2_4d_yz      2.93381       0   0   0           -0.00084 
      1     Sn1_5p_z   Te2_4d_z^2      2.93381       0   0   0           -0.00000 
      1     Sn1_5p_z    Te2_4d_xz      2.93381       0   0   0           -0.00251 
      1     Sn1_5p_z Te2_4d_x^2-y^2      2.93381       0   0   0           -0.00000 
      1     Sn1_5p_x       Te2_5s      2.93381       0   0   0           -0.43346 
      1     Sn1_5p_x     Te2_5p_y      2.93381       0   0   0           -0.45125 
      1     Sn1_5p_x     Te2_5p_z      2.93381       0   0   0           -0.00000 
      1     Sn1_5p_x     Te2_5p_x      2.93381       0   0   0           -0.59855 
      1     Sn1_5p_x    Te2_4d_xy      2.93381       0   0   0           -0.00864 
      1     Sn1_5p_x    Te2_4d_yz      2.93381       0   0   0           -0.00001 
      1     Sn1_5p_x   Te2_4d_z^2      2.93381       0   0   0           -0.00179 
      1     Sn1_5p_x    Te2_4d_xz      2.93381       0   0   0           -0.00000 
      1     Sn1_5p_x Te2_4d_x^2-y^2      2.93381       0   0   0           -0.00037 
      1    Sn1_4d_xy       Te2_5s      2.93381       0   0   0           -0.00074 
      1    Sn1_4d_xy     Te2_5p_y      2.93381       0   0   0           -0.00092 
      1    Sn1_4d_xy     Te2_5p_z      2.93381       0   0   0           -0.00000 
      1    Sn1_4d_xy     Te2_5p_x      2.93381       0   0   0           -0.00876 
      1    Sn1_4d_xy    Te2_4d_xy      2.93381       0   0   0           -0.00002 
      1    Sn1_4d_xy    Te2_4d_yz      2.93381       0   0   0           -0.00000 
      1    Sn1_4d_xy   Te2_4d_z^2      2.93381       0   0   0           -0.00000 
      1    Sn1_4d_xy    Te2_4d_xz      2.93381       0   0   0           -0.00000 
      1    Sn1_4d_xy Te2_4d_x^2-y^2      2.93381       0   0   0            0.00000 
      1    Sn1_4d_yz       Te2_5s      2.93381       0   0   0           -0.00000 
      1    Sn1_4d_yz     Te2_5p_y      2.93381       0   0   0           -0.00001 
      1    Sn1_4d_yz     Te2_5p_z      2.93381       0   0   0           -0.00026 
      1    Sn1_4d_yz     Te2_5p_x      2.93381       0   0   0           -0.00002 
      1    Sn1_4d_yz    Te2_4d_xy      2.93381       0   0   0           -0.00000 
      1    Sn1_4d_yz    Te2_4d_yz      2.93381       0   0   0           -0.00000 
      1    Sn1_4d_yz   Te2_4d_z^2      2.93381       0   0   0           -0.00000 
      1    Sn1_4d_yz    Te2_4d_xz      2.93381       0   0   0            0.00000 
      1    Sn1_4d_yz Te2_4d_x^2-y^2      2.93381       0   0   0           -0.00000 
      1   Sn1_4d_z^2       Te2_5s      2.93381       0   0   0            0.00032 
      1   Sn1_4d_z^2     Te2_5p_y      2.93381       0   0   0           -0.00079 
      1   Sn1_4d_z^2     Te2_5p_z      2.93381       0   0   0           -0.00000 
      1   Sn1_4d_z^2     Te2_5p_x      2.93381       0   0   0           -0.00237 
      1   Sn1_4d_z^2    Te2_4d_xy      2.93381       0   0   0           -0.00000 
      1   Sn1_4d_z^2    Te2_4d_yz      2.93381       0   0   0           -0.00000 
      1   Sn1_4d_z^2   Te2_4d_z^2      2.93381       0   0   0            0.00000 
      1   Sn1_4d_z^2    Te2_4d_xz      2.93381       0   0   0           -0.00000 
      1   Sn1_4d_z^2 Te2_4d_x^2-y^2      2.93381       0   0   0           -0.00000 
      1    Sn1_4d_xz       Te2_5s      2.93381       0   0   0           -0.00000 
      1    Sn1_4d_xz     Te2_5p_y      2.93381       0   0   0           -0.00002 
      1    Sn1_4d_xz     Te2_5p_z      2.93381       0   0   0           -0.00077 
      1    Sn1_4d_xz     Te2_5p_x      2.93381       0   0   0           -0.00001 
      1    Sn1_4d_xz    Te2_4d_xy      2.93381       0   0   0           -0.00000 
      1    Sn1_4d_xz    Te2_4d_yz      2.93381       0   0   0            0.00000 
      1    Sn1_4d_xz   Te2_4d_z^2      2.93381       0   0   0           -0.00000 
      1    Sn1_4d_xz    Te2_4d_xz      2.93381       0   0   0            0.00000 
      1    Sn1_4d_xz Te2_4d_x^2-y^2      2.93381       0   0   0           -0.00000 
      1 Sn1_4d_x^2-y^2       Te2_5s      2.93381       0   0   0           -0.00025 
      1 Sn1_4d_x^2-y^2     Te2_5p_y      2.93381       0   0   0           -0.00335 
      1 Sn1_4d_x^2-y^2     Te2_5p_z      2.93381       0   0   0           -0.00000 
      1 Sn1_4d_x^2-y^2     Te2_5p_x      2.93381       0   0   0           -0.00092 
      1 Sn1_4d_x^2-y^2    Te2_4d_xy      2.93381       0   0   0            0.00000 
      1 Sn1_4d_x^2-y^2    Te2_4d_yz      2.93381       0   0   0           -0.00000 
      1 Sn1_4d_x^2-y^2   Te2_4d_z^2      2.93381       0   0   0           -0.00000 
      1 Sn1_4d_x^2-y^2    Te2_4d_xz      2.93381       0   0   0           -0.00000 
      1 Sn1_4d_x^2-y^2 Te2_4d_x^2-y^2      2.93381       0   0   0            0.00000 
