
     Program PWSCF v.6.4.1 starts on 16Oct2023 at  7:57:14 

     This program is part of the open-source Quantum ESPRESSO suite
     for quantum simulation of materials; please cite
         "P. Giannozzi et al., J. Phys.:Condens. Matter 21 395502 (2009);
         "P. Giannozzi et al., J. Phys.:Condens. Matter 29 465901 (2017);
          URL http://www.quantum-espresso.org", 
     in publications or presentations arising from this work. More details at
     http://www.quantum-espresso.org/quote

     Parallel version (MPI & OpenMP), running on       4 processor cores
     Number of MPI processes:                 4
     Threads/MPI process:                     1

     MPI processes distributed on     1 nodes
     R & G space division:  proc/nbgrp/npool/nimage =       4
     Waiting for input...
     Reading input from standard input
Warning: card &IONS ignored
Warning: card / ignored
Warning: card &CELL ignored
Warning: card / ignored

     Current dimensions of program PWSCF are:
     Max number of different atomic species (ntypx) = 10
     Max number of k-points (npk) =  40000
     Max angular momentum in pseudopotentials (lmaxx) =  3
               file Sn.pz-dn-kjpaw_psl.0.2.UPF: wavefunction(s)  5P 4D renormalized
               file Te.pz-dn-kjpaw_psl.0.2.2.UPF: wavefunction(s)  5S 5P 4D renormalized

     Subspace diagonalization in iterative solution of the eigenvalue problem:
     a serial algorithm will be used

 
     Parallelization info
     --------------------
     sticks:   dense  smooth     PW     G-vecs:    dense   smooth      PW
     Min         634     317     94                79366    28045    4535
     Max         636     319     95                79373    28053    4541
     Sum        2539    1273    379               317473   112201   18151
 

     Title: 
      PbTe_PZ                                                                   


     bravais-lattice index     =            0
     lattice parameter (alat)  =       9.8060  a.u.
     unit-cell volume          =    2349.2426 (a.u.)^3
     number of atoms/cell      =            2
     number of atomic types    =            2
     number of electrons       =        30.00
     number of Kohn-Sham states=           40
     kinetic-energy cutoff     =      50.0000  Ry
     charge density cutoff     =     400.0000  Ry
     convergence threshold     =      1.0E-08
     mixing beta               =       0.7000
     number of iterations used =            8  plain     mixing
     Exchange-correlation      = SLA PZ NOGX NOGC ( 1  1  0  0 0 0)

     celldm(1)=   9.806000  celldm(2)=   0.000000  celldm(3)=   0.000000
     celldm(4)=   0.000000  celldm(5)=   0.000000  celldm(6)=   0.000000

     crystal axes: (cart. coord. in units of alat)
               a(1) = (   0.979265   0.000000   0.000000 )  
               a(2) = (   0.489632   0.848068   0.000000 )  
               a(3) = (   0.000000   0.000000   3.000000 )  

     reciprocal axes: (cart. coord. in units 2 pi/alat)
               b(1) = (  1.021174 -0.589575  0.000000 )  
               b(2) = (  0.000000  1.179150  0.000000 )  
               b(3) = (  0.000000  0.000000  0.333333 )  


     PseudoPot. # 1 for Sn read from file:
     /home/raagya/pseudo/Sn.pz-dn-kjpaw_psl.0.2.UPF
     MD5 check sum: 4ae5dc40354335ee230663518864dfb4
     Pseudo is Projector augmented-wave + core cor, Zval = 14.0
     Generated using "atomic" code by A. Dal Corso v.5.0.2 svn rev. 9415
     Shape of augmentation charge: BESSEL
     Using radial grid of 1243 points,  6 beta functions with: 
                l(1) =   0
                l(2) =   0
                l(3) =   1
                l(4) =   1
                l(5) =   2
                l(6) =   2
     Q(r) pseudized with 0 coefficients 


     PseudoPot. # 2 for Te read from file:
     /home/raagya/pseudo/Te.pz-dn-kjpaw_psl.0.2.2.UPF
     MD5 check sum: 848335cf92ad1717ddde3348b6640de7
     Pseudo is Projector augmented-wave + core cor, Zval = 16.0
     Generated using "atomic" code by A. Dal Corso v.5.0.2 svn rev. 9415
     Shape of augmentation charge: PSQ
     Using radial grid of 1245 points,  6 beta functions with: 
                l(1) =   0
                l(2) =   0
                l(3) =   1
                l(4) =   1
                l(5) =   2
                l(6) =   2
     Q(r) pseudized with 0 coefficients 


     atomic species   valence    mass     pseudopotential
        Sn            14.00   118.71000     Sn( 1.00)
        Te            16.00   127.60000     Te( 1.00)

     No symmetry found


                                    s                        frac. trans.

      isym =  1     identity                                     

 cryst.   s( 1) = (     1          0          0      )
                  (     0          1          0      )
                  (     0          0          1      )

 cart.    s( 1) = (  1.0000000  0.0000000  0.0000000 )
                  (  0.0000000  1.0000000  0.0000000 )
                  (  0.0000000  0.0000000  1.0000000 )


   Cartesian axes

     site n.     atom                  positions (alat units)
         1           Sn  tau(   1) = (   0.0000000   0.0000000   0.0000000  )
         2           Te  tau(   2) = (   0.4896324   0.2826894   0.0000000  )

   Crystallographic axes

     site n.     atom                  positions (cryst. coord.)
         1           Sn  tau(   1) = (  0.0000000  0.0000000  0.0000000  )
         2           Te  tau(   2) = (  0.3333333  0.3333333  0.0000000  )

     number of k points=  1600  Fermi-Dirac smearing, width (Ry)=  0.0030
                       cart. coord. in units 2pi/alat
        k(    1) = (   0.0000000   0.0000000   0.0000000), wk =   0.0012500
        k(    2) = (   0.0000000   0.0294788   0.0000000), wk =   0.0012500
        k(    3) = (   0.0000000   0.0589575   0.0000000), wk =   0.0012500
        k(    4) = (   0.0000000   0.0884363   0.0000000), wk =   0.0012500
        k(    5) = (   0.0000000   0.1179150   0.0000000), wk =   0.0012500
        k(    6) = (   0.0000000   0.1473938   0.0000000), wk =   0.0012500
        k(    7) = (   0.0000000   0.1768726   0.0000000), wk =   0.0012500
        k(    8) = (   0.0000000   0.2063513   0.0000000), wk =   0.0012500
        k(    9) = (   0.0000000   0.2358301   0.0000000), wk =   0.0012500
        k(   10) = (   0.0000000   0.2653088   0.0000000), wk =   0.0012500
        k(   11) = (   0.0000000   0.2947876   0.0000000), wk =   0.0012500
        k(   12) = (   0.0000000   0.3242664   0.0000000), wk =   0.0012500
        k(   13) = (   0.0000000   0.3537451   0.0000000), wk =   0.0012500
        k(   14) = (   0.0000000   0.3832239   0.0000000), wk =   0.0012500
        k(   15) = (   0.0000000   0.4127026   0.0000000), wk =   0.0012500
        k(   16) = (   0.0000000   0.4421814   0.0000000), wk =   0.0012500
        k(   17) = (   0.0000000   0.4716602   0.0000000), wk =   0.0012500
        k(   18) = (   0.0000000   0.5011389   0.0000000), wk =   0.0012500
        k(   19) = (   0.0000000   0.5306177   0.0000000), wk =   0.0012500
        k(   20) = (   0.0000000   0.5600964   0.0000000), wk =   0.0012500
        k(   21) = (   0.0000000  -0.5895752   0.0000000), wk =   0.0012500
        k(   22) = (   0.0000000  -0.5600964   0.0000000), wk =   0.0012500
        k(   23) = (   0.0000000  -0.5306177   0.0000000), wk =   0.0012500
        k(   24) = (   0.0000000  -0.5011389   0.0000000), wk =   0.0012500
        k(   25) = (   0.0000000  -0.4716602   0.0000000), wk =   0.0012500
        k(   26) = (   0.0000000  -0.4421814   0.0000000), wk =   0.0012500
        k(   27) = (   0.0000000  -0.4127026   0.0000000), wk =   0.0012500
        k(   28) = (   0.0000000  -0.3832239   0.0000000), wk =   0.0012500
        k(   29) = (   0.0000000  -0.3537451   0.0000000), wk =   0.0012500
        k(   30) = (   0.0000000  -0.3242664   0.0000000), wk =   0.0012500
        k(   31) = (   0.0000000  -0.2947876   0.0000000), wk =   0.0012500
        k(   32) = (   0.0000000  -0.2653088   0.0000000), wk =   0.0012500
        k(   33) = (   0.0000000  -0.2358301   0.0000000), wk =   0.0012500
        k(   34) = (   0.0000000  -0.2063513   0.0000000), wk =   0.0012500
        k(   35) = (   0.0000000  -0.1768726   0.0000000), wk =   0.0012500
        k(   36) = (   0.0000000  -0.1473938   0.0000000), wk =   0.0012500
        k(   37) = (   0.0000000  -0.1179150   0.0000000), wk =   0.0012500
        k(   38) = (   0.0000000  -0.0884363   0.0000000), wk =   0.0012500
        k(   39) = (   0.0000000  -0.0589575   0.0000000), wk =   0.0012500
        k(   40) = (   0.0000000  -0.0294788   0.0000000), wk =   0.0012500
        k(   41) = (   0.0255294  -0.0147394   0.0000000), wk =   0.0012500
        k(   42) = (   0.0255294   0.0147394   0.0000000), wk =   0.0012500
        k(   43) = (   0.0255294   0.0442181   0.0000000), wk =   0.0012500
        k(   44) = (   0.0255294   0.0736969   0.0000000), wk =   0.0012500
        k(   45) = (   0.0255294   0.1031757   0.0000000), wk =   0.0012500
        k(   46) = (   0.0255294   0.1326544   0.0000000), wk =   0.0012500
        k(   47) = (   0.0255294   0.1621332   0.0000000), wk =   0.0012500
        k(   48) = (   0.0255294   0.1916119   0.0000000), wk =   0.0012500
        k(   49) = (   0.0255294   0.2210907   0.0000000), wk =   0.0012500
        k(   50) = (   0.0255294   0.2505695   0.0000000), wk =   0.0012500
        k(   51) = (   0.0255294   0.2800482   0.0000000), wk =   0.0012500
        k(   52) = (   0.0255294   0.3095270   0.0000000), wk =   0.0012500
        k(   53) = (   0.0255294   0.3390057   0.0000000), wk =   0.0012500
        k(   54) = (   0.0255294   0.3684845   0.0000000), wk =   0.0012500
        k(   55) = (   0.0255294   0.3979633   0.0000000), wk =   0.0012500
        k(   56) = (   0.0255294   0.4274420   0.0000000), wk =   0.0012500
        k(   57) = (   0.0255294   0.4569208   0.0000000), wk =   0.0012500
        k(   58) = (   0.0255294   0.4863995   0.0000000), wk =   0.0012500
        k(   59) = (   0.0255294   0.5158783   0.0000000), wk =   0.0012500
        k(   60) = (   0.0255294   0.5453571   0.0000000), wk =   0.0012500
        k(   61) = (   0.0255294  -0.6043146   0.0000000), wk =   0.0012500
        k(   62) = (   0.0255294  -0.5748358   0.0000000), wk =   0.0012500
        k(   63) = (   0.0255294  -0.5453571   0.0000000), wk =   0.0012500
        k(   64) = (   0.0255294  -0.5158783   0.0000000), wk =   0.0012500
        k(   65) = (   0.0255294  -0.4863995   0.0000000), wk =   0.0012500
        k(   66) = (   0.0255294  -0.4569208   0.0000000), wk =   0.0012500
        k(   67) = (   0.0255294  -0.4274420   0.0000000), wk =   0.0012500
        k(   68) = (   0.0255294  -0.3979633   0.0000000), wk =   0.0012500
        k(   69) = (   0.0255294  -0.3684845   0.0000000), wk =   0.0012500
        k(   70) = (   0.0255294  -0.3390057   0.0000000), wk =   0.0012500
        k(   71) = (   0.0255294  -0.3095270   0.0000000), wk =   0.0012500
        k(   72) = (   0.0255294  -0.2800482   0.0000000), wk =   0.0012500
        k(   73) = (   0.0255294  -0.2505695   0.0000000), wk =   0.0012500
        k(   74) = (   0.0255294  -0.2210907   0.0000000), wk =   0.0012500
        k(   75) = (   0.0255294  -0.1916119   0.0000000), wk =   0.0012500
        k(   76) = (   0.0255294  -0.1621332   0.0000000), wk =   0.0012500
        k(   77) = (   0.0255294  -0.1326544   0.0000000), wk =   0.0012500
        k(   78) = (   0.0255294  -0.1031757   0.0000000), wk =   0.0012500
        k(   79) = (   0.0255294  -0.0736969   0.0000000), wk =   0.0012500
        k(   80) = (   0.0255294  -0.0442181   0.0000000), wk =   0.0012500
        k(   81) = (   0.0510587  -0.0294788   0.0000000), wk =   0.0012500
        k(   82) = (   0.0510587  -0.0000000   0.0000000), wk =   0.0012500
        k(   83) = (   0.0510587   0.0294788   0.0000000), wk =   0.0012500
        k(   84) = (   0.0510587   0.0589575   0.0000000), wk =   0.0012500
        k(   85) = (   0.0510587   0.0884363   0.0000000), wk =   0.0012500
        k(   86) = (   0.0510587   0.1179150   0.0000000), wk =   0.0012500
        k(   87) = (   0.0510587   0.1473938   0.0000000), wk =   0.0012500
        k(   88) = (   0.0510587   0.1768726   0.0000000), wk =   0.0012500
        k(   89) = (   0.0510587   0.2063513   0.0000000), wk =   0.0012500
        k(   90) = (   0.0510587   0.2358301   0.0000000), wk =   0.0012500
        k(   91) = (   0.0510587   0.2653088   0.0000000), wk =   0.0012500
        k(   92) = (   0.0510587   0.2947876   0.0000000), wk =   0.0012500
        k(   93) = (   0.0510587   0.3242664   0.0000000), wk =   0.0012500
        k(   94) = (   0.0510587   0.3537451   0.0000000), wk =   0.0012500
        k(   95) = (   0.0510587   0.3832239   0.0000000), wk =   0.0012500
        k(   96) = (   0.0510587   0.4127026   0.0000000), wk =   0.0012500
        k(   97) = (   0.0510587   0.4421814   0.0000000), wk =   0.0012500
        k(   98) = (   0.0510587   0.4716602   0.0000000), wk =   0.0012500
        k(   99) = (   0.0510587   0.5011389   0.0000000), wk =   0.0012500
        k(  100) = (   0.0510587   0.5306177   0.0000000), wk =   0.0012500
        k(  101) = (   0.0510587  -0.6190540   0.0000000), wk =   0.0012500
        k(  102) = (   0.0510587  -0.5895752   0.0000000), wk =   0.0012500
        k(  103) = (   0.0510587  -0.5600964   0.0000000), wk =   0.0012500
        k(  104) = (   0.0510587  -0.5306177   0.0000000), wk =   0.0012500
        k(  105) = (   0.0510587  -0.5011389   0.0000000), wk =   0.0012500
        k(  106) = (   0.0510587  -0.4716602   0.0000000), wk =   0.0012500
        k(  107) = (   0.0510587  -0.4421814   0.0000000), wk =   0.0012500
        k(  108) = (   0.0510587  -0.4127026   0.0000000), wk =   0.0012500
        k(  109) = (   0.0510587  -0.3832239   0.0000000), wk =   0.0012500
        k(  110) = (   0.0510587  -0.3537451   0.0000000), wk =   0.0012500
        k(  111) = (   0.0510587  -0.3242664   0.0000000), wk =   0.0012500
        k(  112) = (   0.0510587  -0.2947876   0.0000000), wk =   0.0012500
        k(  113) = (   0.0510587  -0.2653088   0.0000000), wk =   0.0012500
        k(  114) = (   0.0510587  -0.2358301   0.0000000), wk =   0.0012500
        k(  115) = (   0.0510587  -0.2063513   0.0000000), wk =   0.0012500
        k(  116) = (   0.0510587  -0.1768726   0.0000000), wk =   0.0012500
        k(  117) = (   0.0510587  -0.1473938   0.0000000), wk =   0.0012500
        k(  118) = (   0.0510587  -0.1179150   0.0000000), wk =   0.0012500
        k(  119) = (   0.0510587  -0.0884363   0.0000000), wk =   0.0012500
        k(  120) = (   0.0510587  -0.0589575   0.0000000), wk =   0.0012500
        k(  121) = (   0.0765881  -0.0442181   0.0000000), wk =   0.0012500
        k(  122) = (   0.0765881  -0.0147394   0.0000000), wk =   0.0012500
        k(  123) = (   0.0765881   0.0147394   0.0000000), wk =   0.0012500
        k(  124) = (   0.0765881   0.0442181   0.0000000), wk =   0.0012500
        k(  125) = (   0.0765881   0.0736969   0.0000000), wk =   0.0012500
        k(  126) = (   0.0765881   0.1031757   0.0000000), wk =   0.0012500
        k(  127) = (   0.0765881   0.1326544   0.0000000), wk =   0.0012500
        k(  128) = (   0.0765881   0.1621332   0.0000000), wk =   0.0012500
        k(  129) = (   0.0765881   0.1916119   0.0000000), wk =   0.0012500
        k(  130) = (   0.0765881   0.2210907   0.0000000), wk =   0.0012500
        k(  131) = (   0.0765881   0.2505695   0.0000000), wk =   0.0012500
        k(  132) = (   0.0765881   0.2800482   0.0000000), wk =   0.0012500
        k(  133) = (   0.0765881   0.3095270   0.0000000), wk =   0.0012500
        k(  134) = (   0.0765881   0.3390057   0.0000000), wk =   0.0012500
        k(  135) = (   0.0765881   0.3684845   0.0000000), wk =   0.0012500
        k(  136) = (   0.0765881   0.3979633   0.0000000), wk =   0.0012500
        k(  137) = (   0.0765881   0.4274420   0.0000000), wk =   0.0012500
        k(  138) = (   0.0765881   0.4569208   0.0000000), wk =   0.0012500
        k(  139) = (   0.0765881   0.4863995   0.0000000), wk =   0.0012500
        k(  140) = (   0.0765881   0.5158783   0.0000000), wk =   0.0012500
        k(  141) = (   0.0765881  -0.6337933   0.0000000), wk =   0.0012500
        k(  142) = (   0.0765881  -0.6043146   0.0000000), wk =   0.0012500
        k(  143) = (   0.0765881  -0.5748358   0.0000000), wk =   0.0012500
        k(  144) = (   0.0765881  -0.5453571   0.0000000), wk =   0.0012500
        k(  145) = (   0.0765881  -0.5158783   0.0000000), wk =   0.0012500
        k(  146) = (   0.0765881  -0.4863995   0.0000000), wk =   0.0012500
        k(  147) = (   0.0765881  -0.4569208   0.0000000), wk =   0.0012500
        k(  148) = (   0.0765881  -0.4274420   0.0000000), wk =   0.0012500
        k(  149) = (   0.0765881  -0.3979633   0.0000000), wk =   0.0012500
        k(  150) = (   0.0765881  -0.3684845   0.0000000), wk =   0.0012500
        k(  151) = (   0.0765881  -0.3390057   0.0000000), wk =   0.0012500
        k(  152) = (   0.0765881  -0.3095270   0.0000000), wk =   0.0012500
        k(  153) = (   0.0765881  -0.2800482   0.0000000), wk =   0.0012500
        k(  154) = (   0.0765881  -0.2505695   0.0000000), wk =   0.0012500
        k(  155) = (   0.0765881  -0.2210907   0.0000000), wk =   0.0012500
        k(  156) = (   0.0765881  -0.1916119   0.0000000), wk =   0.0012500
        k(  157) = (   0.0765881  -0.1621332   0.0000000), wk =   0.0012500
        k(  158) = (   0.0765881  -0.1326544   0.0000000), wk =   0.0012500
        k(  159) = (   0.0765881  -0.1031757   0.0000000), wk =   0.0012500
        k(  160) = (   0.0765881  -0.0736969   0.0000000), wk =   0.0012500
        k(  161) = (   0.1021174  -0.0589575   0.0000000), wk =   0.0012500
        k(  162) = (   0.1021174  -0.0294788   0.0000000), wk =   0.0012500
        k(  163) = (   0.1021174  -0.0000000   0.0000000), wk =   0.0012500
        k(  164) = (   0.1021174   0.0294788   0.0000000), wk =   0.0012500
        k(  165) = (   0.1021174   0.0589575   0.0000000), wk =   0.0012500
        k(  166) = (   0.1021174   0.0884363   0.0000000), wk =   0.0012500
        k(  167) = (   0.1021174   0.1179150   0.0000000), wk =   0.0012500
        k(  168) = (   0.1021174   0.1473938   0.0000000), wk =   0.0012500
        k(  169) = (   0.1021174   0.1768726   0.0000000), wk =   0.0012500
        k(  170) = (   0.1021174   0.2063513   0.0000000), wk =   0.0012500
        k(  171) = (   0.1021174   0.2358301   0.0000000), wk =   0.0012500
        k(  172) = (   0.1021174   0.2653088   0.0000000), wk =   0.0012500
        k(  173) = (   0.1021174   0.2947876   0.0000000), wk =   0.0012500
        k(  174) = (   0.1021174   0.3242664   0.0000000), wk =   0.0012500
        k(  175) = (   0.1021174   0.3537451   0.0000000), wk =   0.0012500
        k(  176) = (   0.1021174   0.3832239   0.0000000), wk =   0.0012500
        k(  177) = (   0.1021174   0.4127026   0.0000000), wk =   0.0012500
        k(  178) = (   0.1021174   0.4421814   0.0000000), wk =   0.0012500
        k(  179) = (   0.1021174   0.4716602   0.0000000), wk =   0.0012500
        k(  180) = (   0.1021174   0.5011389   0.0000000), wk =   0.0012500
        k(  181) = (   0.1021174  -0.6485327   0.0000000), wk =   0.0012500
        k(  182) = (   0.1021174  -0.6190540   0.0000000), wk =   0.0012500
        k(  183) = (   0.1021174  -0.5895752   0.0000000), wk =   0.0012500
        k(  184) = (   0.1021174  -0.5600964   0.0000000), wk =   0.0012500
        k(  185) = (   0.1021174  -0.5306177   0.0000000), wk =   0.0012500
        k(  186) = (   0.1021174  -0.5011389   0.0000000), wk =   0.0012500
        k(  187) = (   0.1021174  -0.4716602   0.0000000), wk =   0.0012500
        k(  188) = (   0.1021174  -0.4421814   0.0000000), wk =   0.0012500
        k(  189) = (   0.1021174  -0.4127026   0.0000000), wk =   0.0012500
        k(  190) = (   0.1021174  -0.3832239   0.0000000), wk =   0.0012500
        k(  191) = (   0.1021174  -0.3537451   0.0000000), wk =   0.0012500
        k(  192) = (   0.1021174  -0.3242664   0.0000000), wk =   0.0012500
        k(  193) = (   0.1021174  -0.2947876   0.0000000), wk =   0.0012500
        k(  194) = (   0.1021174  -0.2653088   0.0000000), wk =   0.0012500
        k(  195) = (   0.1021174  -0.2358301   0.0000000), wk =   0.0012500
        k(  196) = (   0.1021174  -0.2063513   0.0000000), wk =   0.0012500
        k(  197) = (   0.1021174  -0.1768726   0.0000000), wk =   0.0012500
        k(  198) = (   0.1021174  -0.1473938   0.0000000), wk =   0.0012500
        k(  199) = (   0.1021174  -0.1179150   0.0000000), wk =   0.0012500
        k(  200) = (   0.1021174  -0.0884363   0.0000000), wk =   0.0012500
        k(  201) = (   0.1276468  -0.0736969   0.0000000), wk =   0.0012500
        k(  202) = (   0.1276468  -0.0442181   0.0000000), wk =   0.0012500
        k(  203) = (   0.1276468  -0.0147394   0.0000000), wk =   0.0012500
        k(  204) = (   0.1276468   0.0147394   0.0000000), wk =   0.0012500
        k(  205) = (   0.1276468   0.0442181   0.0000000), wk =   0.0012500
        k(  206) = (   0.1276468   0.0736969   0.0000000), wk =   0.0012500
        k(  207) = (   0.1276468   0.1031757   0.0000000), wk =   0.0012500
        k(  208) = (   0.1276468   0.1326544   0.0000000), wk =   0.0012500
        k(  209) = (   0.1276468   0.1621332   0.0000000), wk =   0.0012500
        k(  210) = (   0.1276468   0.1916119   0.0000000), wk =   0.0012500
        k(  211) = (   0.1276468   0.2210907   0.0000000), wk =   0.0012500
        k(  212) = (   0.1276468   0.2505695   0.0000000), wk =   0.0012500
        k(  213) = (   0.1276468   0.2800482   0.0000000), wk =   0.0012500
        k(  214) = (   0.1276468   0.3095270   0.0000000), wk =   0.0012500
        k(  215) = (   0.1276468   0.3390057   0.0000000), wk =   0.0012500
        k(  216) = (   0.1276468   0.3684845   0.0000000), wk =   0.0012500
        k(  217) = (   0.1276468   0.3979633   0.0000000), wk =   0.0012500
        k(  218) = (   0.1276468   0.4274420   0.0000000), wk =   0.0012500
        k(  219) = (   0.1276468   0.4569208   0.0000000), wk =   0.0012500
        k(  220) = (   0.1276468   0.4863995   0.0000000), wk =   0.0012500
        k(  221) = (   0.1276468  -0.6632721   0.0000000), wk =   0.0012500
        k(  222) = (   0.1276468  -0.6337933   0.0000000), wk =   0.0012500
        k(  223) = (   0.1276468  -0.6043146   0.0000000), wk =   0.0012500
        k(  224) = (   0.1276468  -0.5748358   0.0000000), wk =   0.0012500
        k(  225) = (   0.1276468  -0.5453571   0.0000000), wk =   0.0012500
        k(  226) = (   0.1276468  -0.5158783   0.0000000), wk =   0.0012500
        k(  227) = (   0.1276468  -0.4863995   0.0000000), wk =   0.0012500
        k(  228) = (   0.1276468  -0.4569208   0.0000000), wk =   0.0012500
        k(  229) = (   0.1276468  -0.4274420   0.0000000), wk =   0.0012500
        k(  230) = (   0.1276468  -0.3979633   0.0000000), wk =   0.0012500
        k(  231) = (   0.1276468  -0.3684845   0.0000000), wk =   0.0012500
        k(  232) = (   0.1276468  -0.3390057   0.0000000), wk =   0.0012500
        k(  233) = (   0.1276468  -0.3095270   0.0000000), wk =   0.0012500
        k(  234) = (   0.1276468  -0.2800482   0.0000000), wk =   0.0012500
        k(  235) = (   0.1276468  -0.2505695   0.0000000), wk =   0.0012500
        k(  236) = (   0.1276468  -0.2210907   0.0000000), wk =   0.0012500
        k(  237) = (   0.1276468  -0.1916119   0.0000000), wk =   0.0012500
        k(  238) = (   0.1276468  -0.1621332   0.0000000), wk =   0.0012500
        k(  239) = (   0.1276468  -0.1326544   0.0000000), wk =   0.0012500
        k(  240) = (   0.1276468  -0.1031757   0.0000000), wk =   0.0012500
        k(  241) = (   0.1531761  -0.0884363   0.0000000), wk =   0.0012500
        k(  242) = (   0.1531761  -0.0589575   0.0000000), wk =   0.0012500
        k(  243) = (   0.1531761  -0.0294788   0.0000000), wk =   0.0012500
        k(  244) = (   0.1531761  -0.0000000   0.0000000), wk =   0.0012500
        k(  245) = (   0.1531761   0.0294788   0.0000000), wk =   0.0012500
        k(  246) = (   0.1531761   0.0589575   0.0000000), wk =   0.0012500
        k(  247) = (   0.1531761   0.0884363   0.0000000), wk =   0.0012500
        k(  248) = (   0.1531761   0.1179150   0.0000000), wk =   0.0012500
        k(  249) = (   0.1531761   0.1473938   0.0000000), wk =   0.0012500
        k(  250) = (   0.1531761   0.1768726   0.0000000), wk =   0.0012500
        k(  251) = (   0.1531761   0.2063513   0.0000000), wk =   0.0012500
        k(  252) = (   0.1531761   0.2358301   0.0000000), wk =   0.0012500
        k(  253) = (   0.1531761   0.2653088   0.0000000), wk =   0.0012500
        k(  254) = (   0.1531761   0.2947876   0.0000000), wk =   0.0012500
        k(  255) = (   0.1531761   0.3242664   0.0000000), wk =   0.0012500
        k(  256) = (   0.1531761   0.3537451   0.0000000), wk =   0.0012500
        k(  257) = (   0.1531761   0.3832239   0.0000000), wk =   0.0012500
        k(  258) = (   0.1531761   0.4127026   0.0000000), wk =   0.0012500
        k(  259) = (   0.1531761   0.4421814   0.0000000), wk =   0.0012500
        k(  260) = (   0.1531761   0.4716602   0.0000000), wk =   0.0012500
        k(  261) = (   0.1531761  -0.6780115   0.0000000), wk =   0.0012500
        k(  262) = (   0.1531761  -0.6485327   0.0000000), wk =   0.0012500
        k(  263) = (   0.1531761  -0.6190540   0.0000000), wk =   0.0012500
        k(  264) = (   0.1531761  -0.5895752   0.0000000), wk =   0.0012500
        k(  265) = (   0.1531761  -0.5600964   0.0000000), wk =   0.0012500
        k(  266) = (   0.1531761  -0.5306177   0.0000000), wk =   0.0012500
        k(  267) = (   0.1531761  -0.5011389   0.0000000), wk =   0.0012500
        k(  268) = (   0.1531761  -0.4716602   0.0000000), wk =   0.0012500
        k(  269) = (   0.1531761  -0.4421814   0.0000000), wk =   0.0012500
        k(  270) = (   0.1531761  -0.4127026   0.0000000), wk =   0.0012500
        k(  271) = (   0.1531761  -0.3832239   0.0000000), wk =   0.0012500
        k(  272) = (   0.1531761  -0.3537451   0.0000000), wk =   0.0012500
        k(  273) = (   0.1531761  -0.3242664   0.0000000), wk =   0.0012500
        k(  274) = (   0.1531761  -0.2947876   0.0000000), wk =   0.0012500
        k(  275) = (   0.1531761  -0.2653088   0.0000000), wk =   0.0012500
        k(  276) = (   0.1531761  -0.2358301   0.0000000), wk =   0.0012500
        k(  277) = (   0.1531761  -0.2063513   0.0000000), wk =   0.0012500
        k(  278) = (   0.1531761  -0.1768726   0.0000000), wk =   0.0012500
        k(  279) = (   0.1531761  -0.1473938   0.0000000), wk =   0.0012500
        k(  280) = (   0.1531761  -0.1179150   0.0000000), wk =   0.0012500
        k(  281) = (   0.1787055  -0.1031757   0.0000000), wk =   0.0012500
        k(  282) = (   0.1787055  -0.0736969   0.0000000), wk =   0.0012500
        k(  283) = (   0.1787055  -0.0442181   0.0000000), wk =   0.0012500
        k(  284) = (   0.1787055  -0.0147394   0.0000000), wk =   0.0012500
        k(  285) = (   0.1787055   0.0147394   0.0000000), wk =   0.0012500
        k(  286) = (   0.1787055   0.0442181   0.0000000), wk =   0.0012500
        k(  287) = (   0.1787055   0.0736969   0.0000000), wk =   0.0012500
        k(  288) = (   0.1787055   0.1031757   0.0000000), wk =   0.0012500
        k(  289) = (   0.1787055   0.1326544   0.0000000), wk =   0.0012500
        k(  290) = (   0.1787055   0.1621332   0.0000000), wk =   0.0012500
        k(  291) = (   0.1787055   0.1916119   0.0000000), wk =   0.0012500
        k(  292) = (   0.1787055   0.2210907   0.0000000), wk =   0.0012500
        k(  293) = (   0.1787055   0.2505695   0.0000000), wk =   0.0012500
        k(  294) = (   0.1787055   0.2800482   0.0000000), wk =   0.0012500
        k(  295) = (   0.1787055   0.3095270   0.0000000), wk =   0.0012500
        k(  296) = (   0.1787055   0.3390057   0.0000000), wk =   0.0012500
        k(  297) = (   0.1787055   0.3684845   0.0000000), wk =   0.0012500
        k(  298) = (   0.1787055   0.3979633   0.0000000), wk =   0.0012500
        k(  299) = (   0.1787055   0.4274420   0.0000000), wk =   0.0012500
        k(  300) = (   0.1787055   0.4569208   0.0000000), wk =   0.0012500
        k(  301) = (   0.1787055  -0.6927509   0.0000000), wk =   0.0012500
        k(  302) = (   0.1787055  -0.6632721   0.0000000), wk =   0.0012500
        k(  303) = (   0.1787055  -0.6337933   0.0000000), wk =   0.0012500
        k(  304) = (   0.1787055  -0.6043146   0.0000000), wk =   0.0012500
        k(  305) = (   0.1787055  -0.5748358   0.0000000), wk =   0.0012500
        k(  306) = (   0.1787055  -0.5453571   0.0000000), wk =   0.0012500
        k(  307) = (   0.1787055  -0.5158783   0.0000000), wk =   0.0012500
        k(  308) = (   0.1787055  -0.4863995   0.0000000), wk =   0.0012500
        k(  309) = (   0.1787055  -0.4569208   0.0000000), wk =   0.0012500
        k(  310) = (   0.1787055  -0.4274420   0.0000000), wk =   0.0012500
        k(  311) = (   0.1787055  -0.3979633   0.0000000), wk =   0.0012500
        k(  312) = (   0.1787055  -0.3684845   0.0000000), wk =   0.0012500
        k(  313) = (   0.1787055  -0.3390057   0.0000000), wk =   0.0012500
        k(  314) = (   0.1787055  -0.3095270   0.0000000), wk =   0.0012500
        k(  315) = (   0.1787055  -0.2800482   0.0000000), wk =   0.0012500
        k(  316) = (   0.1787055  -0.2505695   0.0000000), wk =   0.0012500
        k(  317) = (   0.1787055  -0.2210907   0.0000000), wk =   0.0012500
        k(  318) = (   0.1787055  -0.1916119   0.0000000), wk =   0.0012500
        k(  319) = (   0.1787055  -0.1621332   0.0000000), wk =   0.0012500
        k(  320) = (   0.1787055  -0.1326544   0.0000000), wk =   0.0012500
        k(  321) = (   0.2042348  -0.1179150   0.0000000), wk =   0.0012500
        k(  322) = (   0.2042348  -0.0884363   0.0000000), wk =   0.0012500
        k(  323) = (   0.2042348  -0.0589575   0.0000000), wk =   0.0012500
        k(  324) = (   0.2042348  -0.0294788   0.0000000), wk =   0.0012500
        k(  325) = (   0.2042348  -0.0000000   0.0000000), wk =   0.0012500
        k(  326) = (   0.2042348   0.0294788   0.0000000), wk =   0.0012500
        k(  327) = (   0.2042348   0.0589575   0.0000000), wk =   0.0012500
        k(  328) = (   0.2042348   0.0884363   0.0000000), wk =   0.0012500
        k(  329) = (   0.2042348   0.1179150   0.0000000), wk =   0.0012500
        k(  330) = (   0.2042348   0.1473938   0.0000000), wk =   0.0012500
        k(  331) = (   0.2042348   0.1768726   0.0000000), wk =   0.0012500
        k(  332) = (   0.2042348   0.2063513   0.0000000), wk =   0.0012500
        k(  333) = (   0.2042348   0.2358301   0.0000000), wk =   0.0012500
        k(  334) = (   0.2042348   0.2653088   0.0000000), wk =   0.0012500
        k(  335) = (   0.2042348   0.2947876   0.0000000), wk =   0.0012500
        k(  336) = (   0.2042348   0.3242664   0.0000000), wk =   0.0012500
        k(  337) = (   0.2042348   0.3537451   0.0000000), wk =   0.0012500
        k(  338) = (   0.2042348   0.3832239   0.0000000), wk =   0.0012500
        k(  339) = (   0.2042348   0.4127026   0.0000000), wk =   0.0012500
        k(  340) = (   0.2042348   0.4421814   0.0000000), wk =   0.0012500
        k(  341) = (   0.2042348  -0.7074902   0.0000000), wk =   0.0012500
        k(  342) = (   0.2042348  -0.6780115   0.0000000), wk =   0.0012500
        k(  343) = (   0.2042348  -0.6485327   0.0000000), wk =   0.0012500
        k(  344) = (   0.2042348  -0.6190540   0.0000000), wk =   0.0012500
        k(  345) = (   0.2042348  -0.5895752   0.0000000), wk =   0.0012500
        k(  346) = (   0.2042348  -0.5600964   0.0000000), wk =   0.0012500
        k(  347) = (   0.2042348  -0.5306177   0.0000000), wk =   0.0012500
        k(  348) = (   0.2042348  -0.5011389   0.0000000), wk =   0.0012500
        k(  349) = (   0.2042348  -0.4716602   0.0000000), wk =   0.0012500
        k(  350) = (   0.2042348  -0.4421814   0.0000000), wk =   0.0012500
        k(  351) = (   0.2042348  -0.4127026   0.0000000), wk =   0.0012500
        k(  352) = (   0.2042348  -0.3832239   0.0000000), wk =   0.0012500
        k(  353) = (   0.2042348  -0.3537451   0.0000000), wk =   0.0012500
        k(  354) = (   0.2042348  -0.3242664   0.0000000), wk =   0.0012500
        k(  355) = (   0.2042348  -0.2947876   0.0000000), wk =   0.0012500
        k(  356) = (   0.2042348  -0.2653088   0.0000000), wk =   0.0012500
        k(  357) = (   0.2042348  -0.2358301   0.0000000), wk =   0.0012500
        k(  358) = (   0.2042348  -0.2063513   0.0000000), wk =   0.0012500
        k(  359) = (   0.2042348  -0.1768726   0.0000000), wk =   0.0012500
        k(  360) = (   0.2042348  -0.1473938   0.0000000), wk =   0.0012500
        k(  361) = (   0.2297642  -0.1326544   0.0000000), wk =   0.0012500
        k(  362) = (   0.2297642  -0.1031757   0.0000000), wk =   0.0012500
        k(  363) = (   0.2297642  -0.0736969   0.0000000), wk =   0.0012500
        k(  364) = (   0.2297642  -0.0442181   0.0000000), wk =   0.0012500
        k(  365) = (   0.2297642  -0.0147394   0.0000000), wk =   0.0012500
        k(  366) = (   0.2297642   0.0147394   0.0000000), wk =   0.0012500
        k(  367) = (   0.2297642   0.0442181   0.0000000), wk =   0.0012500
        k(  368) = (   0.2297642   0.0736969   0.0000000), wk =   0.0012500
        k(  369) = (   0.2297642   0.1031757   0.0000000), wk =   0.0012500
        k(  370) = (   0.2297642   0.1326544   0.0000000), wk =   0.0012500
        k(  371) = (   0.2297642   0.1621332   0.0000000), wk =   0.0012500
        k(  372) = (   0.2297642   0.1916119   0.0000000), wk =   0.0012500
        k(  373) = (   0.2297642   0.2210907   0.0000000), wk =   0.0012500
        k(  374) = (   0.2297642   0.2505695   0.0000000), wk =   0.0012500
        k(  375) = (   0.2297642   0.2800482   0.0000000), wk =   0.0012500
        k(  376) = (   0.2297642   0.3095270   0.0000000), wk =   0.0012500
        k(  377) = (   0.2297642   0.3390057   0.0000000), wk =   0.0012500
        k(  378) = (   0.2297642   0.3684845   0.0000000), wk =   0.0012500
        k(  379) = (   0.2297642   0.3979633   0.0000000), wk =   0.0012500
        k(  380) = (   0.2297642   0.4274420   0.0000000), wk =   0.0012500
        k(  381) = (   0.2297642  -0.7222296   0.0000000), wk =   0.0012500
        k(  382) = (   0.2297642  -0.6927509   0.0000000), wk =   0.0012500
        k(  383) = (   0.2297642  -0.6632721   0.0000000), wk =   0.0012500
        k(  384) = (   0.2297642  -0.6337933   0.0000000), wk =   0.0012500
        k(  385) = (   0.2297642  -0.6043146   0.0000000), wk =   0.0012500
        k(  386) = (   0.2297642  -0.5748358   0.0000000), wk =   0.0012500
        k(  387) = (   0.2297642  -0.5453571   0.0000000), wk =   0.0012500
        k(  388) = (   0.2297642  -0.5158783   0.0000000), wk =   0.0012500
        k(  389) = (   0.2297642  -0.4863995   0.0000000), wk =   0.0012500
        k(  390) = (   0.2297642  -0.4569208   0.0000000), wk =   0.0012500
        k(  391) = (   0.2297642  -0.4274420   0.0000000), wk =   0.0012500
        k(  392) = (   0.2297642  -0.3979633   0.0000000), wk =   0.0012500
        k(  393) = (   0.2297642  -0.3684845   0.0000000), wk =   0.0012500
        k(  394) = (   0.2297642  -0.3390057   0.0000000), wk =   0.0012500
        k(  395) = (   0.2297642  -0.3095270   0.0000000), wk =   0.0012500
        k(  396) = (   0.2297642  -0.2800482   0.0000000), wk =   0.0012500
        k(  397) = (   0.2297642  -0.2505695   0.0000000), wk =   0.0012500
        k(  398) = (   0.2297642  -0.2210907   0.0000000), wk =   0.0012500
        k(  399) = (   0.2297642  -0.1916119   0.0000000), wk =   0.0012500
        k(  400) = (   0.2297642  -0.1621332   0.0000000), wk =   0.0012500
        k(  401) = (   0.2552936  -0.1473938   0.0000000), wk =   0.0012500
        k(  402) = (   0.2552936  -0.1179150   0.0000000), wk =   0.0012500
        k(  403) = (   0.2552936  -0.0884363   0.0000000), wk =   0.0012500
        k(  404) = (   0.2552936  -0.0589575   0.0000000), wk =   0.0012500
        k(  405) = (   0.2552936  -0.0294788   0.0000000), wk =   0.0012500
        k(  406) = (   0.2552936  -0.0000000   0.0000000), wk =   0.0012500
        k(  407) = (   0.2552936   0.0294788   0.0000000), wk =   0.0012500
        k(  408) = (   0.2552936   0.0589575   0.0000000), wk =   0.0012500
        k(  409) = (   0.2552936   0.0884363   0.0000000), wk =   0.0012500
        k(  410) = (   0.2552936   0.1179150   0.0000000), wk =   0.0012500
        k(  411) = (   0.2552936   0.1473938   0.0000000), wk =   0.0012500
        k(  412) = (   0.2552936   0.1768726   0.0000000), wk =   0.0012500
        k(  413) = (   0.2552936   0.2063513   0.0000000), wk =   0.0012500
        k(  414) = (   0.2552936   0.2358301   0.0000000), wk =   0.0012500
        k(  415) = (   0.2552936   0.2653088   0.0000000), wk =   0.0012500
        k(  416) = (   0.2552936   0.2947876   0.0000000), wk =   0.0012500
        k(  417) = (   0.2552936   0.3242664   0.0000000), wk =   0.0012500
        k(  418) = (   0.2552936   0.3537451   0.0000000), wk =   0.0012500
        k(  419) = (   0.2552936   0.3832239   0.0000000), wk =   0.0012500
        k(  420) = (   0.2552936   0.4127026   0.0000000), wk =   0.0012500
        k(  421) = (   0.2552936  -0.7369690   0.0000000), wk =   0.0012500
        k(  422) = (   0.2552936  -0.7074902   0.0000000), wk =   0.0012500
        k(  423) = (   0.2552936  -0.6780115   0.0000000), wk =   0.0012500
        k(  424) = (   0.2552936  -0.6485327   0.0000000), wk =   0.0012500
        k(  425) = (   0.2552936  -0.6190540   0.0000000), wk =   0.0012500
        k(  426) = (   0.2552936  -0.5895752   0.0000000), wk =   0.0012500
        k(  427) = (   0.2552936  -0.5600964   0.0000000), wk =   0.0012500
        k(  428) = (   0.2552936  -0.5306177   0.0000000), wk =   0.0012500
        k(  429) = (   0.2552936  -0.5011389   0.0000000), wk =   0.0012500
        k(  430) = (   0.2552936  -0.4716602   0.0000000), wk =   0.0012500
        k(  431) = (   0.2552936  -0.4421814   0.0000000), wk =   0.0012500
        k(  432) = (   0.2552936  -0.4127026   0.0000000), wk =   0.0012500
        k(  433) = (   0.2552936  -0.3832239   0.0000000), wk =   0.0012500
        k(  434) = (   0.2552936  -0.3537451   0.0000000), wk =   0.0012500
        k(  435) = (   0.2552936  -0.3242664   0.0000000), wk =   0.0012500
        k(  436) = (   0.2552936  -0.2947876   0.0000000), wk =   0.0012500
        k(  437) = (   0.2552936  -0.2653088   0.0000000), wk =   0.0012500
        k(  438) = (   0.2552936  -0.2358301   0.0000000), wk =   0.0012500
        k(  439) = (   0.2552936  -0.2063513   0.0000000), wk =   0.0012500
        k(  440) = (   0.2552936  -0.1768726   0.0000000), wk =   0.0012500
        k(  441) = (   0.2808229  -0.1621332   0.0000000), wk =   0.0012500
        k(  442) = (   0.2808229  -0.1326544   0.0000000), wk =   0.0012500
        k(  443) = (   0.2808229  -0.1031757   0.0000000), wk =   0.0012500
        k(  444) = (   0.2808229  -0.0736969   0.0000000), wk =   0.0012500
        k(  445) = (   0.2808229  -0.0442181   0.0000000), wk =   0.0012500
        k(  446) = (   0.2808229  -0.0147394   0.0000000), wk =   0.0012500
        k(  447) = (   0.2808229   0.0147394   0.0000000), wk =   0.0012500
        k(  448) = (   0.2808229   0.0442181   0.0000000), wk =   0.0012500
        k(  449) = (   0.2808229   0.0736969   0.0000000), wk =   0.0012500
        k(  450) = (   0.2808229   0.1031757   0.0000000), wk =   0.0012500
        k(  451) = (   0.2808229   0.1326544   0.0000000), wk =   0.0012500
        k(  452) = (   0.2808229   0.1621332   0.0000000), wk =   0.0012500
        k(  453) = (   0.2808229   0.1916119   0.0000000), wk =   0.0012500
        k(  454) = (   0.2808229   0.2210907   0.0000000), wk =   0.0012500
        k(  455) = (   0.2808229   0.2505695   0.0000000), wk =   0.0012500
        k(  456) = (   0.2808229   0.2800482   0.0000000), wk =   0.0012500
        k(  457) = (   0.2808229   0.3095270   0.0000000), wk =   0.0012500
        k(  458) = (   0.2808229   0.3390057   0.0000000), wk =   0.0012500
        k(  459) = (   0.2808229   0.3684845   0.0000000), wk =   0.0012500
        k(  460) = (   0.2808229   0.3979633   0.0000000), wk =   0.0012500
        k(  461) = (   0.2808229  -0.7517084   0.0000000), wk =   0.0012500
        k(  462) = (   0.2808229  -0.7222296   0.0000000), wk =   0.0012500
        k(  463) = (   0.2808229  -0.6927509   0.0000000), wk =   0.0012500
        k(  464) = (   0.2808229  -0.6632721   0.0000000), wk =   0.0012500
        k(  465) = (   0.2808229  -0.6337933   0.0000000), wk =   0.0012500
        k(  466) = (   0.2808229  -0.6043146   0.0000000), wk =   0.0012500
        k(  467) = (   0.2808229  -0.5748358   0.0000000), wk =   0.0012500
        k(  468) = (   0.2808229  -0.5453571   0.0000000), wk =   0.0012500
        k(  469) = (   0.2808229  -0.5158783   0.0000000), wk =   0.0012500
        k(  470) = (   0.2808229  -0.4863995   0.0000000), wk =   0.0012500
        k(  471) = (   0.2808229  -0.4569208   0.0000000), wk =   0.0012500
        k(  472) = (   0.2808229  -0.4274420   0.0000000), wk =   0.0012500
        k(  473) = (   0.2808229  -0.3979633   0.0000000), wk =   0.0012500
        k(  474) = (   0.2808229  -0.3684845   0.0000000), wk =   0.0012500
        k(  475) = (   0.2808229  -0.3390057   0.0000000), wk =   0.0012500
        k(  476) = (   0.2808229  -0.3095270   0.0000000), wk =   0.0012500
        k(  477) = (   0.2808229  -0.2800482   0.0000000), wk =   0.0012500
        k(  478) = (   0.2808229  -0.2505695   0.0000000), wk =   0.0012500
        k(  479) = (   0.2808229  -0.2210907   0.0000000), wk =   0.0012500
        k(  480) = (   0.2808229  -0.1916119   0.0000000), wk =   0.0012500
        k(  481) = (   0.3063523  -0.1768726   0.0000000), wk =   0.0012500
        k(  482) = (   0.3063523  -0.1473938   0.0000000), wk =   0.0012500
        k(  483) = (   0.3063523  -0.1179150   0.0000000), wk =   0.0012500
        k(  484) = (   0.3063523  -0.0884363   0.0000000), wk =   0.0012500
        k(  485) = (   0.3063523  -0.0589575   0.0000000), wk =   0.0012500
        k(  486) = (   0.3063523  -0.0294788   0.0000000), wk =   0.0012500
        k(  487) = (   0.3063523  -0.0000000   0.0000000), wk =   0.0012500
        k(  488) = (   0.3063523   0.0294788   0.0000000), wk =   0.0012500
        k(  489) = (   0.3063523   0.0589575   0.0000000), wk =   0.0012500
        k(  490) = (   0.3063523   0.0884363   0.0000000), wk =   0.0012500
        k(  491) = (   0.3063523   0.1179150   0.0000000), wk =   0.0012500
        k(  492) = (   0.3063523   0.1473938   0.0000000), wk =   0.0012500
        k(  493) = (   0.3063523   0.1768726   0.0000000), wk =   0.0012500
        k(  494) = (   0.3063523   0.2063513   0.0000000), wk =   0.0012500
        k(  495) = (   0.3063523   0.2358301   0.0000000), wk =   0.0012500
        k(  496) = (   0.3063523   0.2653088   0.0000000), wk =   0.0012500
        k(  497) = (   0.3063523   0.2947876   0.0000000), wk =   0.0012500
        k(  498) = (   0.3063523   0.3242664   0.0000000), wk =   0.0012500
        k(  499) = (   0.3063523   0.3537451   0.0000000), wk =   0.0012500
        k(  500) = (   0.3063523   0.3832239   0.0000000), wk =   0.0012500
        k(  501) = (   0.3063523  -0.7664478   0.0000000), wk =   0.0012500
        k(  502) = (   0.3063523  -0.7369690   0.0000000), wk =   0.0012500
        k(  503) = (   0.3063523  -0.7074902   0.0000000), wk =   0.0012500
        k(  504) = (   0.3063523  -0.6780115   0.0000000), wk =   0.0012500
        k(  505) = (   0.3063523  -0.6485327   0.0000000), wk =   0.0012500
        k(  506) = (   0.3063523  -0.6190540   0.0000000), wk =   0.0012500
        k(  507) = (   0.3063523  -0.5895752   0.0000000), wk =   0.0012500
        k(  508) = (   0.3063523  -0.5600964   0.0000000), wk =   0.0012500
        k(  509) = (   0.3063523  -0.5306177   0.0000000), wk =   0.0012500
        k(  510) = (   0.3063523  -0.5011389   0.0000000), wk =   0.0012500
        k(  511) = (   0.3063523  -0.4716602   0.0000000), wk =   0.0012500
        k(  512) = (   0.3063523  -0.4421814   0.0000000), wk =   0.0012500
        k(  513) = (   0.3063523  -0.4127026   0.0000000), wk =   0.0012500
        k(  514) = (   0.3063523  -0.3832239   0.0000000), wk =   0.0012500
        k(  515) = (   0.3063523  -0.3537451   0.0000000), wk =   0.0012500
        k(  516) = (   0.3063523  -0.3242664   0.0000000), wk =   0.0012500
        k(  517) = (   0.3063523  -0.2947876   0.0000000), wk =   0.0012500
        k(  518) = (   0.3063523  -0.2653088   0.0000000), wk =   0.0012500
        k(  519) = (   0.3063523  -0.2358301   0.0000000), wk =   0.0012500
        k(  520) = (   0.3063523  -0.2063513   0.0000000), wk =   0.0012500
        k(  521) = (   0.3318816  -0.1916119   0.0000000), wk =   0.0012500
        k(  522) = (   0.3318816  -0.1621332   0.0000000), wk =   0.0012500
        k(  523) = (   0.3318816  -0.1326544   0.0000000), wk =   0.0012500
        k(  524) = (   0.3318816  -0.1031757   0.0000000), wk =   0.0012500
        k(  525) = (   0.3318816  -0.0736969   0.0000000), wk =   0.0012500
        k(  526) = (   0.3318816  -0.0442181   0.0000000), wk =   0.0012500
        k(  527) = (   0.3318816  -0.0147394   0.0000000), wk =   0.0012500
        k(  528) = (   0.3318816   0.0147394   0.0000000), wk =   0.0012500
        k(  529) = (   0.3318816   0.0442181   0.0000000), wk =   0.0012500
        k(  530) = (   0.3318816   0.0736969   0.0000000), wk =   0.0012500
        k(  531) = (   0.3318816   0.1031757   0.0000000), wk =   0.0012500
        k(  532) = (   0.3318816   0.1326544   0.0000000), wk =   0.0012500
        k(  533) = (   0.3318816   0.1621332   0.0000000), wk =   0.0012500
        k(  534) = (   0.3318816   0.1916119   0.0000000), wk =   0.0012500
        k(  535) = (   0.3318816   0.2210907   0.0000000), wk =   0.0012500
        k(  536) = (   0.3318816   0.2505695   0.0000000), wk =   0.0012500
        k(  537) = (   0.3318816   0.2800482   0.0000000), wk =   0.0012500
        k(  538) = (   0.3318816   0.3095270   0.0000000), wk =   0.0012500
        k(  539) = (   0.3318816   0.3390057   0.0000000), wk =   0.0012500
        k(  540) = (   0.3318816   0.3684845   0.0000000), wk =   0.0012500
        k(  541) = (   0.3318816  -0.7811872   0.0000000), wk =   0.0012500
        k(  542) = (   0.3318816  -0.7517084   0.0000000), wk =   0.0012500
        k(  543) = (   0.3318816  -0.7222296   0.0000000), wk =   0.0012500
        k(  544) = (   0.3318816  -0.6927509   0.0000000), wk =   0.0012500
        k(  545) = (   0.3318816  -0.6632721   0.0000000), wk =   0.0012500
        k(  546) = (   0.3318816  -0.6337933   0.0000000), wk =   0.0012500
        k(  547) = (   0.3318816  -0.6043146   0.0000000), wk =   0.0012500
        k(  548) = (   0.3318816  -0.5748358   0.0000000), wk =   0.0012500
        k(  549) = (   0.3318816  -0.5453571   0.0000000), wk =   0.0012500
        k(  550) = (   0.3318816  -0.5158783   0.0000000), wk =   0.0012500
        k(  551) = (   0.3318816  -0.4863995   0.0000000), wk =   0.0012500
        k(  552) = (   0.3318816  -0.4569208   0.0000000), wk =   0.0012500
        k(  553) = (   0.3318816  -0.4274420   0.0000000), wk =   0.0012500
        k(  554) = (   0.3318816  -0.3979633   0.0000000), wk =   0.0012500
        k(  555) = (   0.3318816  -0.3684845   0.0000000), wk =   0.0012500
        k(  556) = (   0.3318816  -0.3390057   0.0000000), wk =   0.0012500
        k(  557) = (   0.3318816  -0.3095270   0.0000000), wk =   0.0012500
        k(  558) = (   0.3318816  -0.2800482   0.0000000), wk =   0.0012500
        k(  559) = (   0.3318816  -0.2505695   0.0000000), wk =   0.0012500
        k(  560) = (   0.3318816  -0.2210907   0.0000000), wk =   0.0012500
        k(  561) = (   0.3574110  -0.2063513   0.0000000), wk =   0.0012500
        k(  562) = (   0.3574110  -0.1768726   0.0000000), wk =   0.0012500
        k(  563) = (   0.3574110  -0.1473938   0.0000000), wk =   0.0012500
        k(  564) = (   0.3574110  -0.1179150   0.0000000), wk =   0.0012500
        k(  565) = (   0.3574110  -0.0884363   0.0000000), wk =   0.0012500
        k(  566) = (   0.3574110  -0.0589575   0.0000000), wk =   0.0012500
        k(  567) = (   0.3574110  -0.0294788   0.0000000), wk =   0.0012500
        k(  568) = (   0.3574110  -0.0000000   0.0000000), wk =   0.0012500
        k(  569) = (   0.3574110   0.0294788   0.0000000), wk =   0.0012500
        k(  570) = (   0.3574110   0.0589575   0.0000000), wk =   0.0012500
        k(  571) = (   0.3574110   0.0884363   0.0000000), wk =   0.0012500
        k(  572) = (   0.3574110   0.1179150   0.0000000), wk =   0.0012500
        k(  573) = (   0.3574110   0.1473938   0.0000000), wk =   0.0012500
        k(  574) = (   0.3574110   0.1768726   0.0000000), wk =   0.0012500
        k(  575) = (   0.3574110   0.2063513   0.0000000), wk =   0.0012500
        k(  576) = (   0.3574110   0.2358301   0.0000000), wk =   0.0012500
        k(  577) = (   0.3574110   0.2653088   0.0000000), wk =   0.0012500
        k(  578) = (   0.3574110   0.2947876   0.0000000), wk =   0.0012500
        k(  579) = (   0.3574110   0.3242664   0.0000000), wk =   0.0012500
        k(  580) = (   0.3574110   0.3537451   0.0000000), wk =   0.0012500
        k(  581) = (   0.3574110  -0.7959265   0.0000000), wk =   0.0012500
        k(  582) = (   0.3574110  -0.7664478   0.0000000), wk =   0.0012500
        k(  583) = (   0.3574110  -0.7369690   0.0000000), wk =   0.0012500
        k(  584) = (   0.3574110  -0.7074902   0.0000000), wk =   0.0012500
        k(  585) = (   0.3574110  -0.6780115   0.0000000), wk =   0.0012500
        k(  586) = (   0.3574110  -0.6485327   0.0000000), wk =   0.0012500
        k(  587) = (   0.3574110  -0.6190540   0.0000000), wk =   0.0012500
        k(  588) = (   0.3574110  -0.5895752   0.0000000), wk =   0.0012500
        k(  589) = (   0.3574110  -0.5600964   0.0000000), wk =   0.0012500
        k(  590) = (   0.3574110  -0.5306177   0.0000000), wk =   0.0012500
        k(  591) = (   0.3574110  -0.5011389   0.0000000), wk =   0.0012500
        k(  592) = (   0.3574110  -0.4716602   0.0000000), wk =   0.0012500
        k(  593) = (   0.3574110  -0.4421814   0.0000000), wk =   0.0012500
        k(  594) = (   0.3574110  -0.4127026   0.0000000), wk =   0.0012500
        k(  595) = (   0.3574110  -0.3832239   0.0000000), wk =   0.0012500
        k(  596) = (   0.3574110  -0.3537451   0.0000000), wk =   0.0012500
        k(  597) = (   0.3574110  -0.3242664   0.0000000), wk =   0.0012500
        k(  598) = (   0.3574110  -0.2947876   0.0000000), wk =   0.0012500
        k(  599) = (   0.3574110  -0.2653088   0.0000000), wk =   0.0012500
        k(  600) = (   0.3574110  -0.2358301   0.0000000), wk =   0.0012500
        k(  601) = (   0.3829403  -0.2210907   0.0000000), wk =   0.0012500
        k(  602) = (   0.3829403  -0.1916119   0.0000000), wk =   0.0012500
        k(  603) = (   0.3829403  -0.1621332   0.0000000), wk =   0.0012500
        k(  604) = (   0.3829403  -0.1326544   0.0000000), wk =   0.0012500
        k(  605) = (   0.3829403  -0.1031757   0.0000000), wk =   0.0012500
        k(  606) = (   0.3829403  -0.0736969   0.0000000), wk =   0.0012500
        k(  607) = (   0.3829403  -0.0442181   0.0000000), wk =   0.0012500
        k(  608) = (   0.3829403  -0.0147394   0.0000000), wk =   0.0012500
        k(  609) = (   0.3829403   0.0147394   0.0000000), wk =   0.0012500
        k(  610) = (   0.3829403   0.0442181   0.0000000), wk =   0.0012500
        k(  611) = (   0.3829403   0.0736969   0.0000000), wk =   0.0012500
        k(  612) = (   0.3829403   0.1031757   0.0000000), wk =   0.0012500
        k(  613) = (   0.3829403   0.1326544   0.0000000), wk =   0.0012500
        k(  614) = (   0.3829403   0.1621332   0.0000000), wk =   0.0012500
        k(  615) = (   0.3829403   0.1916119   0.0000000), wk =   0.0012500
        k(  616) = (   0.3829403   0.2210907   0.0000000), wk =   0.0012500
        k(  617) = (   0.3829403   0.2505695   0.0000000), wk =   0.0012500
        k(  618) = (   0.3829403   0.2800482   0.0000000), wk =   0.0012500
        k(  619) = (   0.3829403   0.3095270   0.0000000), wk =   0.0012500
        k(  620) = (   0.3829403   0.3390057   0.0000000), wk =   0.0012500
        k(  621) = (   0.3829403  -0.8106659   0.0000000), wk =   0.0012500
        k(  622) = (   0.3829403  -0.7811872   0.0000000), wk =   0.0012500
        k(  623) = (   0.3829403  -0.7517084   0.0000000), wk =   0.0012500
        k(  624) = (   0.3829403  -0.7222296   0.0000000), wk =   0.0012500
        k(  625) = (   0.3829403  -0.6927509   0.0000000), wk =   0.0012500
        k(  626) = (   0.3829403  -0.6632721   0.0000000), wk =   0.0012500
        k(  627) = (   0.3829403  -0.6337933   0.0000000), wk =   0.0012500
        k(  628) = (   0.3829403  -0.6043146   0.0000000), wk =   0.0012500
        k(  629) = (   0.3829403  -0.5748358   0.0000000), wk =   0.0012500
        k(  630) = (   0.3829403  -0.5453571   0.0000000), wk =   0.0012500
        k(  631) = (   0.3829403  -0.5158783   0.0000000), wk =   0.0012500
        k(  632) = (   0.3829403  -0.4863995   0.0000000), wk =   0.0012500
        k(  633) = (   0.3829403  -0.4569208   0.0000000), wk =   0.0012500
        k(  634) = (   0.3829403  -0.4274420   0.0000000), wk =   0.0012500
        k(  635) = (   0.3829403  -0.3979633   0.0000000), wk =   0.0012500
        k(  636) = (   0.3829403  -0.3684845   0.0000000), wk =   0.0012500
        k(  637) = (   0.3829403  -0.3390057   0.0000000), wk =   0.0012500
        k(  638) = (   0.3829403  -0.3095270   0.0000000), wk =   0.0012500
        k(  639) = (   0.3829403  -0.2800482   0.0000000), wk =   0.0012500
        k(  640) = (   0.3829403  -0.2505695   0.0000000), wk =   0.0012500
        k(  641) = (   0.4084697  -0.2358301   0.0000000), wk =   0.0012500
        k(  642) = (   0.4084697  -0.2063513   0.0000000), wk =   0.0012500
        k(  643) = (   0.4084697  -0.1768726   0.0000000), wk =   0.0012500
        k(  644) = (   0.4084697  -0.1473938   0.0000000), wk =   0.0012500
        k(  645) = (   0.4084697  -0.1179150   0.0000000), wk =   0.0012500
        k(  646) = (   0.4084697  -0.0884363   0.0000000), wk =   0.0012500
        k(  647) = (   0.4084697  -0.0589575   0.0000000), wk =   0.0012500
        k(  648) = (   0.4084697  -0.0294788   0.0000000), wk =   0.0012500
        k(  649) = (   0.4084697  -0.0000000   0.0000000), wk =   0.0012500
        k(  650) = (   0.4084697   0.0294788   0.0000000), wk =   0.0012500
        k(  651) = (   0.4084697   0.0589575   0.0000000), wk =   0.0012500
        k(  652) = (   0.4084697   0.0884363   0.0000000), wk =   0.0012500
        k(  653) = (   0.4084697   0.1179150   0.0000000), wk =   0.0012500
        k(  654) = (   0.4084697   0.1473938   0.0000000), wk =   0.0012500
        k(  655) = (   0.4084697   0.1768726   0.0000000), wk =   0.0012500
        k(  656) = (   0.4084697   0.2063513   0.0000000), wk =   0.0012500
        k(  657) = (   0.4084697   0.2358301   0.0000000), wk =   0.0012500
        k(  658) = (   0.4084697   0.2653088   0.0000000), wk =   0.0012500
        k(  659) = (   0.4084697   0.2947876   0.0000000), wk =   0.0012500
        k(  660) = (   0.4084697   0.3242664   0.0000000), wk =   0.0012500
        k(  661) = (   0.4084697  -0.8254053   0.0000000), wk =   0.0012500
        k(  662) = (   0.4084697  -0.7959265   0.0000000), wk =   0.0012500
        k(  663) = (   0.4084697  -0.7664478   0.0000000), wk =   0.0012500
        k(  664) = (   0.4084697  -0.7369690   0.0000000), wk =   0.0012500
        k(  665) = (   0.4084697  -0.7074902   0.0000000), wk =   0.0012500
        k(  666) = (   0.4084697  -0.6780115   0.0000000), wk =   0.0012500
        k(  667) = (   0.4084697  -0.6485327   0.0000000), wk =   0.0012500
        k(  668) = (   0.4084697  -0.6190540   0.0000000), wk =   0.0012500
        k(  669) = (   0.4084697  -0.5895752   0.0000000), wk =   0.0012500
        k(  670) = (   0.4084697  -0.5600964   0.0000000), wk =   0.0012500
        k(  671) = (   0.4084697  -0.5306177   0.0000000), wk =   0.0012500
        k(  672) = (   0.4084697  -0.5011389   0.0000000), wk =   0.0012500
        k(  673) = (   0.4084697  -0.4716602   0.0000000), wk =   0.0012500
        k(  674) = (   0.4084697  -0.4421814   0.0000000), wk =   0.0012500
        k(  675) = (   0.4084697  -0.4127026   0.0000000), wk =   0.0012500
        k(  676) = (   0.4084697  -0.3832239   0.0000000), wk =   0.0012500
        k(  677) = (   0.4084697  -0.3537451   0.0000000), wk =   0.0012500
        k(  678) = (   0.4084697  -0.3242664   0.0000000), wk =   0.0012500
        k(  679) = (   0.4084697  -0.2947876   0.0000000), wk =   0.0012500
        k(  680) = (   0.4084697  -0.2653088   0.0000000), wk =   0.0012500
        k(  681) = (   0.4339990  -0.2505695   0.0000000), wk =   0.0012500
        k(  682) = (   0.4339990  -0.2210907   0.0000000), wk =   0.0012500
        k(  683) = (   0.4339990  -0.1916119   0.0000000), wk =   0.0012500
        k(  684) = (   0.4339990  -0.1621332   0.0000000), wk =   0.0012500
        k(  685) = (   0.4339990  -0.1326544   0.0000000), wk =   0.0012500
        k(  686) = (   0.4339990  -0.1031757   0.0000000), wk =   0.0012500
        k(  687) = (   0.4339990  -0.0736969   0.0000000), wk =   0.0012500
        k(  688) = (   0.4339990  -0.0442181   0.0000000), wk =   0.0012500
        k(  689) = (   0.4339990  -0.0147394   0.0000000), wk =   0.0012500
        k(  690) = (   0.4339990   0.0147394   0.0000000), wk =   0.0012500
        k(  691) = (   0.4339990   0.0442181   0.0000000), wk =   0.0012500
        k(  692) = (   0.4339990   0.0736969   0.0000000), wk =   0.0012500
        k(  693) = (   0.4339990   0.1031757   0.0000000), wk =   0.0012500
        k(  694) = (   0.4339990   0.1326544   0.0000000), wk =   0.0012500
        k(  695) = (   0.4339990   0.1621332   0.0000000), wk =   0.0012500
        k(  696) = (   0.4339990   0.1916119   0.0000000), wk =   0.0012500
        k(  697) = (   0.4339990   0.2210907   0.0000000), wk =   0.0012500
        k(  698) = (   0.4339990   0.2505695   0.0000000), wk =   0.0012500
        k(  699) = (   0.4339990   0.2800482   0.0000000), wk =   0.0012500
        k(  700) = (   0.4339990   0.3095270   0.0000000), wk =   0.0012500
        k(  701) = (   0.4339990  -0.8401447   0.0000000), wk =   0.0012500
        k(  702) = (   0.4339990  -0.8106659   0.0000000), wk =   0.0012500
        k(  703) = (   0.4339990  -0.7811872   0.0000000), wk =   0.0012500
        k(  704) = (   0.4339990  -0.7517084   0.0000000), wk =   0.0012500
        k(  705) = (   0.4339990  -0.7222296   0.0000000), wk =   0.0012500
        k(  706) = (   0.4339990  -0.6927509   0.0000000), wk =   0.0012500
        k(  707) = (   0.4339990  -0.6632721   0.0000000), wk =   0.0012500
        k(  708) = (   0.4339990  -0.6337933   0.0000000), wk =   0.0012500
        k(  709) = (   0.4339990  -0.6043146   0.0000000), wk =   0.0012500
        k(  710) = (   0.4339990  -0.5748358   0.0000000), wk =   0.0012500
        k(  711) = (   0.4339990  -0.5453571   0.0000000), wk =   0.0012500
        k(  712) = (   0.4339990  -0.5158783   0.0000000), wk =   0.0012500
        k(  713) = (   0.4339990  -0.4863995   0.0000000), wk =   0.0012500
        k(  714) = (   0.4339990  -0.4569208   0.0000000), wk =   0.0012500
        k(  715) = (   0.4339990  -0.4274420   0.0000000), wk =   0.0012500
        k(  716) = (   0.4339990  -0.3979633   0.0000000), wk =   0.0012500
        k(  717) = (   0.4339990  -0.3684845   0.0000000), wk =   0.0012500
        k(  718) = (   0.4339990  -0.3390057   0.0000000), wk =   0.0012500
        k(  719) = (   0.4339990  -0.3095270   0.0000000), wk =   0.0012500
        k(  720) = (   0.4339990  -0.2800482   0.0000000), wk =   0.0012500
        k(  721) = (   0.4595284  -0.2653088   0.0000000), wk =   0.0012500
        k(  722) = (   0.4595284  -0.2358301   0.0000000), wk =   0.0012500
        k(  723) = (   0.4595284  -0.2063513   0.0000000), wk =   0.0012500
        k(  724) = (   0.4595284  -0.1768726   0.0000000), wk =   0.0012500
        k(  725) = (   0.4595284  -0.1473938   0.0000000), wk =   0.0012500
        k(  726) = (   0.4595284  -0.1179150   0.0000000), wk =   0.0012500
        k(  727) = (   0.4595284  -0.0884363   0.0000000), wk =   0.0012500
        k(  728) = (   0.4595284  -0.0589575   0.0000000), wk =   0.0012500
        k(  729) = (   0.4595284  -0.0294788   0.0000000), wk =   0.0012500
        k(  730) = (   0.4595284  -0.0000000   0.0000000), wk =   0.0012500
        k(  731) = (   0.4595284   0.0294788   0.0000000), wk =   0.0012500
        k(  732) = (   0.4595284   0.0589575   0.0000000), wk =   0.0012500
        k(  733) = (   0.4595284   0.0884363   0.0000000), wk =   0.0012500
        k(  734) = (   0.4595284   0.1179150   0.0000000), wk =   0.0012500
        k(  735) = (   0.4595284   0.1473938   0.0000000), wk =   0.0012500
        k(  736) = (   0.4595284   0.1768726   0.0000000), wk =   0.0012500
        k(  737) = (   0.4595284   0.2063513   0.0000000), wk =   0.0012500
        k(  738) = (   0.4595284   0.2358301   0.0000000), wk =   0.0012500
        k(  739) = (   0.4595284   0.2653088   0.0000000), wk =   0.0012500
        k(  740) = (   0.4595284   0.2947876   0.0000000), wk =   0.0012500
        k(  741) = (   0.4595284  -0.8548841   0.0000000), wk =   0.0012500
        k(  742) = (   0.4595284  -0.8254053   0.0000000), wk =   0.0012500
        k(  743) = (   0.4595284  -0.7959265   0.0000000), wk =   0.0012500
        k(  744) = (   0.4595284  -0.7664478   0.0000000), wk =   0.0012500
        k(  745) = (   0.4595284  -0.7369690   0.0000000), wk =   0.0012500
        k(  746) = (   0.4595284  -0.7074902   0.0000000), wk =   0.0012500
        k(  747) = (   0.4595284  -0.6780115   0.0000000), wk =   0.0012500
        k(  748) = (   0.4595284  -0.6485327   0.0000000), wk =   0.0012500
        k(  749) = (   0.4595284  -0.6190540   0.0000000), wk =   0.0012500
        k(  750) = (   0.4595284  -0.5895752   0.0000000), wk =   0.0012500
        k(  751) = (   0.4595284  -0.5600964   0.0000000), wk =   0.0012500
        k(  752) = (   0.4595284  -0.5306177   0.0000000), wk =   0.0012500
        k(  753) = (   0.4595284  -0.5011389   0.0000000), wk =   0.0012500
        k(  754) = (   0.4595284  -0.4716602   0.0000000), wk =   0.0012500
        k(  755) = (   0.4595284  -0.4421814   0.0000000), wk =   0.0012500
        k(  756) = (   0.4595284  -0.4127026   0.0000000), wk =   0.0012500
        k(  757) = (   0.4595284  -0.3832239   0.0000000), wk =   0.0012500
        k(  758) = (   0.4595284  -0.3537451   0.0000000), wk =   0.0012500
        k(  759) = (   0.4595284  -0.3242664   0.0000000), wk =   0.0012500
        k(  760) = (   0.4595284  -0.2947876   0.0000000), wk =   0.0012500
        k(  761) = (   0.4850578  -0.2800482   0.0000000), wk =   0.0012500
        k(  762) = (   0.4850578  -0.2505695   0.0000000), wk =   0.0012500
        k(  763) = (   0.4850578  -0.2210907   0.0000000), wk =   0.0012500
        k(  764) = (   0.4850578  -0.1916119   0.0000000), wk =   0.0012500
        k(  765) = (   0.4850578  -0.1621332   0.0000000), wk =   0.0012500
        k(  766) = (   0.4850578  -0.1326544   0.0000000), wk =   0.0012500
        k(  767) = (   0.4850578  -0.1031757   0.0000000), wk =   0.0012500
        k(  768) = (   0.4850578  -0.0736969   0.0000000), wk =   0.0012500
        k(  769) = (   0.4850578  -0.0442181   0.0000000), wk =   0.0012500
        k(  770) = (   0.4850578  -0.0147394   0.0000000), wk =   0.0012500
        k(  771) = (   0.4850578   0.0147394   0.0000000), wk =   0.0012500
        k(  772) = (   0.4850578   0.0442181   0.0000000), wk =   0.0012500
        k(  773) = (   0.4850578   0.0736969   0.0000000), wk =   0.0012500
        k(  774) = (   0.4850578   0.1031757   0.0000000), wk =   0.0012500
        k(  775) = (   0.4850578   0.1326544   0.0000000), wk =   0.0012500
        k(  776) = (   0.4850578   0.1621332   0.0000000), wk =   0.0012500
        k(  777) = (   0.4850578   0.1916119   0.0000000), wk =   0.0012500
        k(  778) = (   0.4850578   0.2210907   0.0000000), wk =   0.0012500
        k(  779) = (   0.4850578   0.2505695   0.0000000), wk =   0.0012500
        k(  780) = (   0.4850578   0.2800482   0.0000000), wk =   0.0012500
        k(  781) = (   0.4850578  -0.8696234   0.0000000), wk =   0.0012500
        k(  782) = (   0.4850578  -0.8401447   0.0000000), wk =   0.0012500
        k(  783) = (   0.4850578  -0.8106659   0.0000000), wk =   0.0012500
        k(  784) = (   0.4850578  -0.7811872   0.0000000), wk =   0.0012500
        k(  785) = (   0.4850578  -0.7517084   0.0000000), wk =   0.0012500
        k(  786) = (   0.4850578  -0.7222296   0.0000000), wk =   0.0012500
        k(  787) = (   0.4850578  -0.6927509   0.0000000), wk =   0.0012500
        k(  788) = (   0.4850578  -0.6632721   0.0000000), wk =   0.0012500
        k(  789) = (   0.4850578  -0.6337933   0.0000000), wk =   0.0012500
        k(  790) = (   0.4850578  -0.6043146   0.0000000), wk =   0.0012500
        k(  791) = (   0.4850578  -0.5748358   0.0000000), wk =   0.0012500
        k(  792) = (   0.4850578  -0.5453571   0.0000000), wk =   0.0012500
        k(  793) = (   0.4850578  -0.5158783   0.0000000), wk =   0.0012500
        k(  794) = (   0.4850578  -0.4863995   0.0000000), wk =   0.0012500
        k(  795) = (   0.4850578  -0.4569208   0.0000000), wk =   0.0012500
        k(  796) = (   0.4850578  -0.4274420   0.0000000), wk =   0.0012500
        k(  797) = (   0.4850578  -0.3979633   0.0000000), wk =   0.0012500
        k(  798) = (   0.4850578  -0.3684845   0.0000000), wk =   0.0012500
        k(  799) = (   0.4850578  -0.3390057   0.0000000), wk =   0.0012500
        k(  800) = (   0.4850578  -0.3095270   0.0000000), wk =   0.0012500
        k(  801) = (  -0.5105871   0.2947876   0.0000000), wk =   0.0012500
        k(  802) = (  -0.5105871   0.3242664   0.0000000), wk =   0.0012500
        k(  803) = (  -0.5105871   0.3537451   0.0000000), wk =   0.0012500
        k(  804) = (  -0.5105871   0.3832239   0.0000000), wk =   0.0012500
        k(  805) = (  -0.5105871   0.4127026   0.0000000), wk =   0.0012500
        k(  806) = (  -0.5105871   0.4421814   0.0000000), wk =   0.0012500
        k(  807) = (  -0.5105871   0.4716602   0.0000000), wk =   0.0012500
        k(  808) = (  -0.5105871   0.5011389   0.0000000), wk =   0.0012500
        k(  809) = (  -0.5105871   0.5306177   0.0000000), wk =   0.0012500
        k(  810) = (  -0.5105871   0.5600964   0.0000000), wk =   0.0012500
        k(  811) = (  -0.5105871   0.5895752   0.0000000), wk =   0.0012500
        k(  812) = (  -0.5105871   0.6190540   0.0000000), wk =   0.0012500
        k(  813) = (  -0.5105871   0.6485327   0.0000000), wk =   0.0012500
        k(  814) = (  -0.5105871   0.6780115   0.0000000), wk =   0.0012500
        k(  815) = (  -0.5105871   0.7074902   0.0000000), wk =   0.0012500
        k(  816) = (  -0.5105871   0.7369690   0.0000000), wk =   0.0012500
        k(  817) = (  -0.5105871   0.7664478   0.0000000), wk =   0.0012500
        k(  818) = (  -0.5105871   0.7959265   0.0000000), wk =   0.0012500
        k(  819) = (  -0.5105871   0.8254053   0.0000000), wk =   0.0012500
        k(  820) = (  -0.5105871   0.8548841   0.0000000), wk =   0.0012500
        k(  821) = (  -0.5105871  -0.2947876   0.0000000), wk =   0.0012500
        k(  822) = (  -0.5105871  -0.2653088   0.0000000), wk =   0.0012500
        k(  823) = (  -0.5105871  -0.2358301   0.0000000), wk =   0.0012500
        k(  824) = (  -0.5105871  -0.2063513   0.0000000), wk =   0.0012500
        k(  825) = (  -0.5105871  -0.1768726   0.0000000), wk =   0.0012500
        k(  826) = (  -0.5105871  -0.1473938   0.0000000), wk =   0.0012500
        k(  827) = (  -0.5105871  -0.1179150   0.0000000), wk =   0.0012500
        k(  828) = (  -0.5105871  -0.0884363   0.0000000), wk =   0.0012500
        k(  829) = (  -0.5105871  -0.0589575   0.0000000), wk =   0.0012500
        k(  830) = (  -0.5105871  -0.0294788   0.0000000), wk =   0.0012500
        k(  831) = (  -0.5105871   0.0000000   0.0000000), wk =   0.0012500
        k(  832) = (  -0.5105871   0.0294788   0.0000000), wk =   0.0012500
        k(  833) = (  -0.5105871   0.0589575   0.0000000), wk =   0.0012500
        k(  834) = (  -0.5105871   0.0884363   0.0000000), wk =   0.0012500
        k(  835) = (  -0.5105871   0.1179150   0.0000000), wk =   0.0012500
        k(  836) = (  -0.5105871   0.1473938   0.0000000), wk =   0.0012500
        k(  837) = (  -0.5105871   0.1768726   0.0000000), wk =   0.0012500
        k(  838) = (  -0.5105871   0.2063513   0.0000000), wk =   0.0012500
        k(  839) = (  -0.5105871   0.2358301   0.0000000), wk =   0.0012500
        k(  840) = (  -0.5105871   0.2653088   0.0000000), wk =   0.0012500
        k(  841) = (  -0.4850578   0.2800482   0.0000000), wk =   0.0012500
        k(  842) = (  -0.4850578   0.3095270   0.0000000), wk =   0.0012500
        k(  843) = (  -0.4850578   0.3390057   0.0000000), wk =   0.0012500
        k(  844) = (  -0.4850578   0.3684845   0.0000000), wk =   0.0012500
        k(  845) = (  -0.4850578   0.3979633   0.0000000), wk =   0.0012500
        k(  846) = (  -0.4850578   0.4274420   0.0000000), wk =   0.0012500
        k(  847) = (  -0.4850578   0.4569208   0.0000000), wk =   0.0012500
        k(  848) = (  -0.4850578   0.4863995   0.0000000), wk =   0.0012500
        k(  849) = (  -0.4850578   0.5158783   0.0000000), wk =   0.0012500
        k(  850) = (  -0.4850578   0.5453571   0.0000000), wk =   0.0012500
        k(  851) = (  -0.4850578   0.5748358   0.0000000), wk =   0.0012500
        k(  852) = (  -0.4850578   0.6043146   0.0000000), wk =   0.0012500
        k(  853) = (  -0.4850578   0.6337933   0.0000000), wk =   0.0012500
        k(  854) = (  -0.4850578   0.6632721   0.0000000), wk =   0.0012500
        k(  855) = (  -0.4850578   0.6927509   0.0000000), wk =   0.0012500
        k(  856) = (  -0.4850578   0.7222296   0.0000000), wk =   0.0012500
        k(  857) = (  -0.4850578   0.7517084   0.0000000), wk =   0.0012500
        k(  858) = (  -0.4850578   0.7811872   0.0000000), wk =   0.0012500
        k(  859) = (  -0.4850578   0.8106659   0.0000000), wk =   0.0012500
        k(  860) = (  -0.4850578   0.8401447   0.0000000), wk =   0.0012500
        k(  861) = (  -0.4850578  -0.3095270   0.0000000), wk =   0.0012500
        k(  862) = (  -0.4850578  -0.2800482   0.0000000), wk =   0.0012500
        k(  863) = (  -0.4850578  -0.2505695   0.0000000), wk =   0.0012500
        k(  864) = (  -0.4850578  -0.2210907   0.0000000), wk =   0.0012500
        k(  865) = (  -0.4850578  -0.1916119   0.0000000), wk =   0.0012500
        k(  866) = (  -0.4850578  -0.1621332   0.0000000), wk =   0.0012500
        k(  867) = (  -0.4850578  -0.1326544   0.0000000), wk =   0.0012500
        k(  868) = (  -0.4850578  -0.1031757   0.0000000), wk =   0.0012500
        k(  869) = (  -0.4850578  -0.0736969   0.0000000), wk =   0.0012500
        k(  870) = (  -0.4850578  -0.0442181   0.0000000), wk =   0.0012500
        k(  871) = (  -0.4850578  -0.0147394   0.0000000), wk =   0.0012500
        k(  872) = (  -0.4850578   0.0147394   0.0000000), wk =   0.0012500
        k(  873) = (  -0.4850578   0.0442181   0.0000000), wk =   0.0012500
        k(  874) = (  -0.4850578   0.0736969   0.0000000), wk =   0.0012500
        k(  875) = (  -0.4850578   0.1031757   0.0000000), wk =   0.0012500
        k(  876) = (  -0.4850578   0.1326544   0.0000000), wk =   0.0012500
        k(  877) = (  -0.4850578   0.1621332   0.0000000), wk =   0.0012500
        k(  878) = (  -0.4850578   0.1916119   0.0000000), wk =   0.0012500
        k(  879) = (  -0.4850578   0.2210907   0.0000000), wk =   0.0012500
        k(  880) = (  -0.4850578   0.2505695   0.0000000), wk =   0.0012500
        k(  881) = (  -0.4595284   0.2653088   0.0000000), wk =   0.0012500
        k(  882) = (  -0.4595284   0.2947876   0.0000000), wk =   0.0012500
        k(  883) = (  -0.4595284   0.3242664   0.0000000), wk =   0.0012500
        k(  884) = (  -0.4595284   0.3537451   0.0000000), wk =   0.0012500
        k(  885) = (  -0.4595284   0.3832239   0.0000000), wk =   0.0012500
        k(  886) = (  -0.4595284   0.4127026   0.0000000), wk =   0.0012500
        k(  887) = (  -0.4595284   0.4421814   0.0000000), wk =   0.0012500
        k(  888) = (  -0.4595284   0.4716602   0.0000000), wk =   0.0012500
        k(  889) = (  -0.4595284   0.5011389   0.0000000), wk =   0.0012500
        k(  890) = (  -0.4595284   0.5306177   0.0000000), wk =   0.0012500
        k(  891) = (  -0.4595284   0.5600964   0.0000000), wk =   0.0012500
        k(  892) = (  -0.4595284   0.5895752   0.0000000), wk =   0.0012500
        k(  893) = (  -0.4595284   0.6190540   0.0000000), wk =   0.0012500
        k(  894) = (  -0.4595284   0.6485327   0.0000000), wk =   0.0012500
        k(  895) = (  -0.4595284   0.6780115   0.0000000), wk =   0.0012500
        k(  896) = (  -0.4595284   0.7074902   0.0000000), wk =   0.0012500
        k(  897) = (  -0.4595284   0.7369690   0.0000000), wk =   0.0012500
        k(  898) = (  -0.4595284   0.7664478   0.0000000), wk =   0.0012500
        k(  899) = (  -0.4595284   0.7959265   0.0000000), wk =   0.0012500
        k(  900) = (  -0.4595284   0.8254053   0.0000000), wk =   0.0012500
        k(  901) = (  -0.4595284  -0.3242664   0.0000000), wk =   0.0012500
        k(  902) = (  -0.4595284  -0.2947876   0.0000000), wk =   0.0012500
        k(  903) = (  -0.4595284  -0.2653088   0.0000000), wk =   0.0012500
        k(  904) = (  -0.4595284  -0.2358301   0.0000000), wk =   0.0012500
        k(  905) = (  -0.4595284  -0.2063513   0.0000000), wk =   0.0012500
        k(  906) = (  -0.4595284  -0.1768726   0.0000000), wk =   0.0012500
        k(  907) = (  -0.4595284  -0.1473938   0.0000000), wk =   0.0012500
        k(  908) = (  -0.4595284  -0.1179150   0.0000000), wk =   0.0012500
        k(  909) = (  -0.4595284  -0.0884363   0.0000000), wk =   0.0012500
        k(  910) = (  -0.4595284  -0.0589575   0.0000000), wk =   0.0012500
        k(  911) = (  -0.4595284  -0.0294788   0.0000000), wk =   0.0012500
        k(  912) = (  -0.4595284   0.0000000   0.0000000), wk =   0.0012500
        k(  913) = (  -0.4595284   0.0294788   0.0000000), wk =   0.0012500
        k(  914) = (  -0.4595284   0.0589575   0.0000000), wk =   0.0012500
        k(  915) = (  -0.4595284   0.0884363   0.0000000), wk =   0.0012500
        k(  916) = (  -0.4595284   0.1179150   0.0000000), wk =   0.0012500
        k(  917) = (  -0.4595284   0.1473938   0.0000000), wk =   0.0012500
        k(  918) = (  -0.4595284   0.1768726   0.0000000), wk =   0.0012500
        k(  919) = (  -0.4595284   0.2063513   0.0000000), wk =   0.0012500
        k(  920) = (  -0.4595284   0.2358301   0.0000000), wk =   0.0012500
        k(  921) = (  -0.4339990   0.2505695   0.0000000), wk =   0.0012500
        k(  922) = (  -0.4339990   0.2800482   0.0000000), wk =   0.0012500
        k(  923) = (  -0.4339990   0.3095270   0.0000000), wk =   0.0012500
        k(  924) = (  -0.4339990   0.3390057   0.0000000), wk =   0.0012500
        k(  925) = (  -0.4339990   0.3684845   0.0000000), wk =   0.0012500
        k(  926) = (  -0.4339990   0.3979633   0.0000000), wk =   0.0012500
        k(  927) = (  -0.4339990   0.4274420   0.0000000), wk =   0.0012500
        k(  928) = (  -0.4339990   0.4569208   0.0000000), wk =   0.0012500
        k(  929) = (  -0.4339990   0.4863995   0.0000000), wk =   0.0012500
        k(  930) = (  -0.4339990   0.5158783   0.0000000), wk =   0.0012500
        k(  931) = (  -0.4339990   0.5453571   0.0000000), wk =   0.0012500
        k(  932) = (  -0.4339990   0.5748358   0.0000000), wk =   0.0012500
        k(  933) = (  -0.4339990   0.6043146   0.0000000), wk =   0.0012500
        k(  934) = (  -0.4339990   0.6337933   0.0000000), wk =   0.0012500
        k(  935) = (  -0.4339990   0.6632721   0.0000000), wk =   0.0012500
        k(  936) = (  -0.4339990   0.6927509   0.0000000), wk =   0.0012500
        k(  937) = (  -0.4339990   0.7222296   0.0000000), wk =   0.0012500
        k(  938) = (  -0.4339990   0.7517084   0.0000000), wk =   0.0012500
        k(  939) = (  -0.4339990   0.7811872   0.0000000), wk =   0.0012500
        k(  940) = (  -0.4339990   0.8106659   0.0000000), wk =   0.0012500
        k(  941) = (  -0.4339990  -0.3390057   0.0000000), wk =   0.0012500
        k(  942) = (  -0.4339990  -0.3095270   0.0000000), wk =   0.0012500
        k(  943) = (  -0.4339990  -0.2800482   0.0000000), wk =   0.0012500
        k(  944) = (  -0.4339990  -0.2505695   0.0000000), wk =   0.0012500
        k(  945) = (  -0.4339990  -0.2210907   0.0000000), wk =   0.0012500
        k(  946) = (  -0.4339990  -0.1916119   0.0000000), wk =   0.0012500
        k(  947) = (  -0.4339990  -0.1621332   0.0000000), wk =   0.0012500
        k(  948) = (  -0.4339990  -0.1326544   0.0000000), wk =   0.0012500
        k(  949) = (  -0.4339990  -0.1031757   0.0000000), wk =   0.0012500
        k(  950) = (  -0.4339990  -0.0736969   0.0000000), wk =   0.0012500
        k(  951) = (  -0.4339990  -0.0442181   0.0000000), wk =   0.0012500
        k(  952) = (  -0.4339990  -0.0147394   0.0000000), wk =   0.0012500
        k(  953) = (  -0.4339990   0.0147394   0.0000000), wk =   0.0012500
        k(  954) = (  -0.4339990   0.0442181   0.0000000), wk =   0.0012500
        k(  955) = (  -0.4339990   0.0736969   0.0000000), wk =   0.0012500
        k(  956) = (  -0.4339990   0.1031757   0.0000000), wk =   0.0012500
        k(  957) = (  -0.4339990   0.1326544   0.0000000), wk =   0.0012500
        k(  958) = (  -0.4339990   0.1621332   0.0000000), wk =   0.0012500
        k(  959) = (  -0.4339990   0.1916119   0.0000000), wk =   0.0012500
        k(  960) = (  -0.4339990   0.2210907   0.0000000), wk =   0.0012500
        k(  961) = (  -0.4084697   0.2358301   0.0000000), wk =   0.0012500
        k(  962) = (  -0.4084697   0.2653088   0.0000000), wk =   0.0012500
        k(  963) = (  -0.4084697   0.2947876   0.0000000), wk =   0.0012500
        k(  964) = (  -0.4084697   0.3242664   0.0000000), wk =   0.0012500
        k(  965) = (  -0.4084697   0.3537451   0.0000000), wk =   0.0012500
        k(  966) = (  -0.4084697   0.3832239   0.0000000), wk =   0.0012500
        k(  967) = (  -0.4084697   0.4127026   0.0000000), wk =   0.0012500
        k(  968) = (  -0.4084697   0.4421814   0.0000000), wk =   0.0012500
        k(  969) = (  -0.4084697   0.4716602   0.0000000), wk =   0.0012500
        k(  970) = (  -0.4084697   0.5011389   0.0000000), wk =   0.0012500
        k(  971) = (  -0.4084697   0.5306177   0.0000000), wk =   0.0012500
        k(  972) = (  -0.4084697   0.5600964   0.0000000), wk =   0.0012500
        k(  973) = (  -0.4084697   0.5895752   0.0000000), wk =   0.0012500
        k(  974) = (  -0.4084697   0.6190540   0.0000000), wk =   0.0012500
        k(  975) = (  -0.4084697   0.6485327   0.0000000), wk =   0.0012500
        k(  976) = (  -0.4084697   0.6780115   0.0000000), wk =   0.0012500
        k(  977) = (  -0.4084697   0.7074902   0.0000000), wk =   0.0012500
        k(  978) = (  -0.4084697   0.7369690   0.0000000), wk =   0.0012500
[...]
     5.4519   5.4615   5.6754   6.1329   6.1563   7.0287   7.5015   7.6573
     7.8675   7.9697   8.1702   8.3660   8.5030   8.5901   8.7872   8.8442

     occupation numbers 
     1.0000   1.0000   1.0000   1.0000   1.0000   1.0000   1.0000   1.0000
     1.0000   1.0000   1.0000   1.0000   1.0000   1.0000   1.0000   0.0000
     0.0000   0.0000   0.0000   0.0000   0.0000   0.0000   0.0000   0.0000
     0.0000   0.0000   0.0000   0.0000   0.0000   0.0000   0.0000   0.0000
     0.0000   0.0000   0.0000   0.0000   0.0000   0.0000   0.0000   0.0000

          k =-0.0255-0.3685 0.0000 ( 14010 PWs)   bands (ev):

   -38.4607 -38.4605 -38.3976 -38.3976 -38.3844 -23.6301 -23.5883 -23.5878
   -23.5332 -23.5288 -13.1422  -8.8388  -5.1051  -3.9278  -3.2489  -1.0313
     0.3057   1.5093   2.0345   2.8619   3.0326   4.0199   4.4834   4.8280
     5.4263   5.5033   5.8004   6.1438   6.3197   7.1151   7.5996   7.6491
     7.8840   8.0754   8.3369   8.3999   8.6506   8.6651   8.8128   8.9830

     occupation numbers 
     1.0000   1.0000   1.0000   1.0000   1.0000   1.0000   1.0000   1.0000
     1.0000   1.0000   1.0000   1.0000   1.0000   1.0000   1.0000   0.0000
     0.0000   0.0000   0.0000   0.0000   0.0000   0.0000   0.0000   0.0000
     0.0000   0.0000   0.0000   0.0000   0.0000   0.0000   0.0000   0.0000
     0.0000   0.0000   0.0000   0.0000   0.0000   0.0000   0.0000   0.0000

          k =-0.0255-0.3390 0.0000 ( 14015 PWs)   bands (ev):

   -38.4607 -38.4605 -38.3976 -38.3976 -38.3844 -23.6303 -23.5883 -23.5878
   -23.5331 -23.5292 -13.1861  -8.6937  -5.0569  -3.9941  -3.3089  -0.9039
     0.1353   1.2876   1.9180   2.7820   2.9182   4.0842   4.5442   5.0586
     5.3740   5.4318   5.8654   6.2515   6.5317   7.1958   7.4787   7.7627
     7.9983   8.2089   8.4094   8.5520   8.7093   8.8562   8.9036   9.1971

     occupation numbers 
     1.0000   1.0000   1.0000   1.0000   1.0000   1.0000   1.0000   1.0000
     1.0000   1.0000   1.0000   1.0000   1.0000   1.0000   1.0000   0.0000
     0.0000   0.0000   0.0000   0.0000   0.0000   0.0000   0.0000   0.0000
     0.0000   0.0000   0.0000   0.0000   0.0000   0.0000   0.0000   0.0000
     0.0000   0.0000   0.0000   0.0000   0.0000   0.0000   0.0000   0.0000

          k =-0.0255-0.3095 0.0000 ( 14015 PWs)   bands (ev):

   -38.4607 -38.4605 -38.3976 -38.3976 -38.3844 -23.6306 -23.5882 -23.5878
   -23.5329 -23.5295 -13.2299  -8.5385  -5.0051  -4.0584  -3.3868  -0.7742
    -0.0094   1.0705   1.8099   2.7037   2.8120   4.1603   4.6095   5.1768
     5.3174   5.3927   5.8323   6.4755   6.7686   7.2846   7.3261   7.8569
     8.1754   8.3899   8.4345   8.6373   8.7312   9.0275   9.1173   9.1185

     occupation numbers 
     1.0000   1.0000   1.0000   1.0000   1.0000   1.0000   1.0000   1.0000
     1.0000   1.0000   1.0000   1.0000   1.0000   1.0000   1.0000   0.0000
     0.0000   0.0000   0.0000   0.0000   0.0000   0.0000   0.0000   0.0000
     0.0000   0.0000   0.0000   0.0000   0.0000   0.0000   0.0000   0.0000
     0.0000   0.0000   0.0000   0.0000   0.0000   0.0000   0.0000   0.0000

          k =-0.0255-0.2800 0.0000 ( 14015 PWs)   bands (ev):

   -38.4606 -38.4605 -38.3976 -38.3976 -38.3844 -23.6309 -23.5881 -23.5877
   -23.5328 -23.5299 -13.2725  -8.3753  -4.9507  -4.1196  -3.4834  -0.6448
    -0.1255   0.8614   1.7104   2.6293   2.7144   4.2435   4.6779   5.0501
     5.2685   5.4520   5.8825   6.7389   6.9914   7.1968   7.3869   7.9580
     8.3196   8.3867   8.5573   8.6565   8.8698   9.0482   9.1991   9.4272

     occupation numbers 
     1.0000   1.0000   1.0000   1.0000   1.0000   1.0000   1.0000   1.0000
     1.0000   1.0000   1.0000   1.0000   1.0000   1.0000   1.0000   0.0000
     0.0000   0.0000   0.0000   0.0000   0.0000   0.0000   0.0000   0.0000
     0.0000   0.0000   0.0000   0.0000   0.0000   0.0000   0.0000   0.0000
     0.0000   0.0000   0.0000   0.0000   0.0000   0.0000   0.0000   0.0000

          k =-0.0255-0.2506 0.0000 ( 14005 PWs)   bands (ev):

   -38.4606 -38.4605 -38.3976 -38.3976 -38.3844 -23.6312 -23.5881 -23.5877
   -23.5327 -23.5302 -13.3130  -8.2066  -4.8948  -4.1765  -3.5983  -0.5181
    -0.2120   0.6630   1.6194   2.5604   2.6254   4.3277   4.7474   4.8525
     5.2349   5.4184   6.0862   6.9569   7.0152   7.3459   7.5041   8.0697
     8.1947   8.4442   8.5975   8.9413   8.9995   9.0325   9.2899   9.5480

     occupation numbers 
     1.0000   1.0000   1.0000   1.0000   1.0000   1.0000   1.0000   1.0000
     1.0000   1.0000   1.0000   1.0000   1.0000   1.0000   1.0000   0.0000
     0.0000   0.0000   0.0000   0.0000   0.0000   0.0000   0.0000   0.0000
     0.0000   0.0000   0.0000   0.0000   0.0000   0.0000   0.0000   0.0000
     0.0000   0.0000   0.0000   0.0000   0.0000   0.0000   0.0000   0.0000

          k =-0.0255-0.2211 0.0000 ( 14001 PWs)   bands (ev):

   -38.4606 -38.4605 -38.3976 -38.3976 -38.3844 -23.6315 -23.5880 -23.5877
   -23.5325 -23.5306 -13.3507  -8.0348  -4.8387  -4.2287  -3.7290  -0.3966
    -0.2702   0.4780   1.5370   2.4979   2.5452   4.4049   4.6381   4.8174
     5.2222   5.3519   6.3531   6.8250   7.2926   7.6219   7.6404   7.9814
     8.1922   8.5674   8.6421   9.0047   9.0905   9.1847   9.3778   9.6880

     occupation numbers 
     1.0000   1.0000   1.0000   1.0000   1.0000   1.0000   1.0000   1.0000
     1.0000   1.0000   1.0000   1.0000   1.0000   1.0000   1.0000   0.0000
     0.0000   0.0000   0.0000   0.0000   0.0000   0.0000   0.0000   0.0000
     0.0000   0.0000   0.0000   0.0000   0.0000   0.0000   0.0000   0.0000
     0.0000   0.0000   0.0000   0.0000   0.0000   0.0000   0.0000   0.0000

          k =-0.0255-0.1916 0.0000 ( 14005 PWs)   bands (ev):

   -38.4606 -38.4606 -38.3976 -38.3976 -38.3844 -23.6318 -23.5879 -23.5877
   -23.5324 -23.5309 -13.3849  -7.8634  -4.7840  -4.2753  -3.8713  -0.3034
    -0.2827   0.3089   1.4632   2.4427   2.4736   4.4259   4.4661   4.8897
     5.2313   5.2864   6.6423   6.7130   7.5534   7.7711   7.8096   7.9158
     8.3264   8.6319   8.6935   8.9996   9.1684   9.3049   9.4540   9.7762

     occupation numbers 
     1.0000   1.0000   1.0000   1.0000   1.0000   1.0000   1.0000   1.0000
     1.0000   1.0000   1.0000   1.0000   1.0000   1.0000   1.0000   0.0000
     0.0000   0.0000   0.0000   0.0000   0.0000   0.0000   0.0000   0.0000
     0.0000   0.0000   0.0000   0.0000   0.0000   0.0000   0.0000   0.0000
     0.0000   0.0000   0.0000   0.0000   0.0000   0.0000   0.0000   0.0000

          k =-0.0255-0.1621 0.0000 ( 14005 PWs)   bands (ev):

   -38.4606 -38.4606 -38.3976 -38.3976 -38.3845 -23.6320 -23.5879 -23.5877
   -23.5323 -23.5312 -13.4151  -7.6960  -4.7322  -4.3160  -4.0192  -0.3161
    -0.1789   0.1581   1.3982   2.3951   2.4110   4.2279   4.5052   4.9682
     5.2290   5.2560   6.6370   6.9424   7.5747   7.7726   8.0324   8.2059
     8.4748   8.5382   8.8217   9.0351   9.1906   9.4133   9.4583   9.7333

     occupation numbers 
     1.0000   1.0000   1.0000   1.0000   1.0000   1.0000   1.0000   1.0000
     1.0000   1.0000   1.0000   1.0000   1.0000   1.0000   1.0000   0.0000
     0.0000   0.0000   0.0000   0.0000   0.0000   0.0000   0.0000   0.0000
     0.0000   0.0000   0.0000   0.0000   0.0000   0.0000   0.0000   0.0000
     0.0000   0.0000   0.0000   0.0000   0.0000   0.0000   0.0000   0.0000

          k =-0.0255-0.1327 0.0000 ( 14007 PWs)   bands (ev):

   -38.4606 -38.4606 -38.3976 -38.3976 -38.3845 -23.6322 -23.5878 -23.5877
   -23.5322 -23.5314 -13.4409  -7.5378  -4.6852  -4.3505  -4.1656  -0.3136
    -0.0875   0.0278   1.3422   2.3555   2.3576   4.0521   4.5236   5.0531
     5.1809   5.2847   6.6069   7.2473   7.3944   7.9576   8.2927   8.2974
     8.5722   8.6436   8.9441   9.0695   9.1870   9.4441   9.5201   9.7632

     occupation numbers 
     1.0000   1.0000   1.0000   1.0000   1.0000   1.0000   1.0000   1.0000
     1.0000   1.0000   1.0000   1.0000   1.0000   1.0000   1.0000   0.0000
     0.0000   0.0000   0.0000   0.0000   0.0000   0.0000   0.0000   0.0000
     0.0000   0.0000   0.0000   0.0000   0.0000   0.0000   0.0000   0.0000
     0.0000   0.0000   0.0000   0.0000   0.0000   0.0000   0.0000   0.0000

          k =-0.0255-0.1032 0.0000 ( 14007 PWs)   bands (ev):

   -38.4606 -38.4606 -38.3976 -38.3976 -38.3845 -23.6324 -23.5878 -23.5877
   -23.5321 -23.5316 -13.4619  -7.3951  -4.6447  -4.3783  -4.3018  -0.3018
    -0.0798  -0.0111   1.2959   2.3137   2.3238   3.9047   4.5280   5.1390
     5.1424   5.3071   6.6275   7.2360   7.5513   8.0978   8.1355   8.5456
     8.8435   8.8449   9.0296   9.0843   9.1907   9.5148   9.5339   9.7014

     occupation numbers 
     1.0000   1.0000   1.0000   1.0000   1.0000   1.0000   1.0000   1.0000
     1.0000   1.0000   1.0000   1.0000   1.0000   1.0000   1.0000   0.0000
     0.0000   0.0000   0.0000   0.0000   0.0000   0.0000   0.0000   0.0000
     0.0000   0.0000   0.0000   0.0000   0.0000   0.0000   0.0000   0.0000
     0.0000   0.0000   0.0000   0.0000   0.0000   0.0000   0.0000   0.0000

          k =-0.0255-0.0737 0.0000 ( 14007 PWs)   bands (ev):

   -38.4606 -38.4606 -38.3976 -38.3976 -38.3845 -23.6325 -23.5877 -23.5877
   -23.5321 -23.5318 -13.4779  -7.2758  -4.6125  -4.4180  -4.3994  -0.2865
    -0.1625   0.0484   1.2598   2.2799   2.3002   3.7902   4.5256   5.1137
     5.2169   5.3190   6.6950   7.1057   7.8449   7.8739   8.3198   8.7555
     8.9831   9.0042   9.1025   9.2032   9.2226   9.5073   9.6580   9.6696

     occupation numbers 
     1.0000   1.0000   1.0000   1.0000   1.0000   1.0000   1.0000   1.0000
     1.0000   1.0000   1.0000   1.0000   1.0000   1.0000   1.0000   0.0000
     0.0000   0.0000   0.0000   0.0000   0.0000   0.0000   0.0000   0.0000
     0.0000   0.0000   0.0000   0.0000   0.0000   0.0000   0.0000   0.0000
     0.0000   0.0000   0.0000   0.0000   0.0000   0.0000   0.0000   0.0000

          k =-0.0255-0.0442 0.0000 ( 14015 PWs)   bands (ev):

   -38.4606 -38.4606 -38.3976 -38.3976 -38.3845 -23.6326 -23.5877 -23.5877
   -23.5320 -23.5319 -13.4886  -7.1887  -4.5901  -4.5037  -4.4135  -0.2729
    -0.2186   0.0892   1.2350   2.2568   2.2846   3.7120   4.5214   5.0945
     5.2771   5.3229   6.7919   7.0117   7.6698   8.1106   8.5109   8.8567
     8.9726   8.9846   9.1924   9.3308   9.4706   9.4724   9.6563   9.8058

     occupation numbers 
     1.0000   1.0000   1.0000   1.0000   1.0000   1.0000   1.0000   1.0000
     1.0000   1.0000   1.0000   1.0000   1.0000   1.0000   1.0000   0.0000
     0.0000   0.0000   0.0000   0.0000   0.0000   0.0000   0.0000   0.0000
     0.0000   0.0000   0.0000   0.0000   0.0000   0.0000   0.0000   0.0000
     0.0000   0.0000   0.0000   0.0000   0.0000   0.0000   0.0000   0.0000

          k =-0.0255-0.0147 0.0000 ( 14033 PWs)   bands (ev):

   -38.4606 -38.4606 -38.3976 -38.3976 -38.3845 -23.6326 -23.5877 -23.5877
   -23.5320 -23.5320 -13.4940  -7.1425  -4.5787  -4.5494  -4.4206  -0.2651
    -0.2469   0.1099   1.2224   2.2451   2.2768   3.6723   4.5186   5.0849
     5.3094   5.3241   6.8755   6.9625   7.5319   8.3075   8.6529   8.7882
     8.9782   9.0290   9.2154   9.2536   9.5847   9.6541   9.6552   9.8209

     occupation numbers 
     1.0000   1.0000   1.0000   1.0000   1.0000   1.0000   1.0000   1.0000
     1.0000   1.0000   1.0000   1.0000   1.0000   1.0000   1.0000   0.0000
     0.0000   0.0000   0.0000   0.0000   0.0000   0.0000   0.0000   0.0000
     0.0000   0.0000   0.0000   0.0000   0.0000   0.0000   0.0000   0.0000
     0.0000   0.0000   0.0000   0.0000   0.0000   0.0000   0.0000   0.0000

     the Fermi energy is    -1.7421 ev

!    total energy              =    -932.22052274 Ry
     Harris-Foulkes estimate   =    -932.22052274 Ry
     estimated scf accuracy    <          2.6E-09 Ry

     total all-electron energy =    -25921.963945 Ry

     The total energy is the sum of the following terms:

     one-electron contribution =    -716.38935657 Ry
     hartree contribution      =     360.47150919 Ry
     xc contribution           =     -72.16399036 Ry
     ewald contribution        =      76.91482840 Ry
     one-center paw contrib.   =    -581.05272873 Ry
      -> PAW hartree energy AE =     112.96721578 Ry
      -> PAW hartree energy PS =    -103.34631116 Ry
      -> PAW xc energy AE      =    -318.46523324 Ry
      -> PAW xc energy PS      =      26.45339661 Ry
      -> total E_H with PAW    =     370.09241381 Ry
      -> total E_XC with PAW   =    -364.17582699 Ry
     smearing contrib. (-TS)   =      -0.00078467 Ry

     convergence has been achieved in   7 iterations

     negative rho (up, down):  4.045E-04 0.000E+00

     Forces acting on atoms (cartesian axes, Ry/au):

     atom    1 type  1   force =    -0.00002548    0.00000737   -0.00000609
     atom    2 type  2   force =     0.00002548   -0.00000737    0.00000609
     The non-local contrib.  to forces
     atom    1 type  1   force =     0.00000139    0.00000486   -0.00001934
     atom    2 type  2   force =     0.00004651   -0.00002332    0.00000315
     The ionic contribution  to forces
     atom    1 type  1   force =    -0.00000001   -0.00000004   -0.00000000
     atom    2 type  2   force =     0.00000001    0.00000004    0.00000000
     The local contribution  to forces
     atom    1 type  1   force =     0.00000582   -0.00000559    0.00002942
     atom    2 type  2   force =    -0.00000955   -0.00000264    0.00002934
     The core correction contribution to forces
     atom    1 type  1   force =     0.00000015   -0.00000027    0.00000019
     atom    2 type  2   force =    -0.00000106   -0.00000033    0.00000065
     The Hubbard contrib.    to forces
     atom    1 type  1   force =     0.00000000    0.00000000    0.00000000
     atom    2 type  2   force =     0.00000000    0.00000000    0.00000000
     The SCF correction term to forces
     atom    1 type  1   force =    -0.00001124    0.00000472   -0.00003129
     atom    2 type  2   force =     0.00001115    0.00001519   -0.00004196

     Total force =     0.000038     Total SCF correction =     0.000057
     SCF correction compared to forces is large: reduce conv_thr to get better values


     Computing stress (Cartesian axis) and pressure


     negative rho (up, down):  4.045E-04 0.000E+00
          total   stress  (Ry/bohr**3)                   (kbar)     P=   -0.20
  -0.00000081   0.00000000  -0.00000000         -0.12      0.00     -0.00
   0.00000000  -0.00000081   0.00000000          0.00     -0.12      0.00
  -0.00000000   0.00000000  -0.00000241         -0.00      0.00     -0.35

     kinetic stress (kbar)   1714.34      0.00     -0.00
                                0.00   1714.34      0.00
                               -0.00      0.00   1739.89

     local   stress (kbar) -32895.79     -0.00     -0.00
                               -0.00 -32895.79     -0.00
                               -0.00     -0.00  34173.56

     nonloc. stress (kbar)    632.24      0.00     -0.00
                                0.00    632.24      0.00
                               -0.00      0.00    614.70

     hartree stress (kbar)  18210.47      0.00      0.00
                                0.00  18210.47      0.00
                                0.00      0.00 -13848.91

     exc-cor stress (kbar)   1126.16      0.00      0.00
                                0.00   1126.16      0.00
                                0.00      0.00   1126.16

     corecor stress (kbar)  -2065.91      0.00     -0.00
                                0.00  -2065.91     -0.00
                               -0.00     -0.00  -2065.26

     ewald   stress (kbar)  13278.37      0.00     -0.00
                                0.00  13278.37     -0.00
                               -0.00     -0.00 -21740.49

     hubbard stress (kbar)      0.00      0.00      0.00
                                0.00      0.00      0.00
                                0.00      0.00      0.00

     london  stress (kbar)      0.00      0.00      0.00
                                0.00      0.00      0.00
                                0.00      0.00      0.00

     DFT-D3  stress (kbar)      0.00      0.00      0.00
                                0.00      0.00      0.00
                                0.00      0.00      0.00

     XDM     stress (kbar)      0.00      0.00      0.00
                                0.00      0.00      0.00
                                0.00      0.00      0.00

     dft-nl  stress (kbar)      0.00      0.00      0.00
                                0.00      0.00      0.00
                                0.00      0.00      0.00

     TS-vdW  stress (kbar)      0.00      0.00      0.00
                                0.00      0.00      0.00
                                0.00      0.00      0.00



     Writing output data file snte.save/
 
     init_run     :    276.58s CPU    283.38s WALL (       1 calls)
     electrons    :   6593.43s CPU   6670.00s WALL (       1 calls)
     forces       :     19.54s CPU     19.90s WALL (       1 calls)
     stress       :     95.97s CPU     97.12s WALL (       1 calls)

     Called by init_run:
     wfcinit      :    269.19s CPU    275.55s WALL (       1 calls)
     wfcinit:atom :      3.08s CPU      3.09s WALL (    1600 calls)
     wfcinit:wfcr :    250.79s CPU    257.02s WALL (    1600 calls)
     potinit      :      1.91s CPU      1.92s WALL (       1 calls)
     hinit0       :      4.47s CPU      4.53s WALL (       1 calls)

     Called by electrons:
     c_bands      :   5673.48s CPU   5734.95s WALL (       8 calls)
     sum_band     :    914.77s CPU    927.64s WALL (       8 calls)
     v_of_rho     :      0.19s CPU      0.21s WALL (       8 calls)
     v_h          :      0.08s CPU      0.09s WALL (       8 calls)
     v_xc         :      0.13s CPU      0.13s WALL (      10 calls)
     newd         :      5.20s CPU      7.71s WALL (       8 calls)
     PAW_pot      :      0.36s CPU      0.36s WALL (       8 calls)
     mix_rho      :      0.16s CPU      0.18s WALL (       8 calls)

     Called by c_bands:
     init_us_2    :     68.26s CPU     68.96s WALL (   30400 calls)
     cegterg      :   5411.62s CPU   5471.45s WALL (   12800 calls)

     Called by sum_band:
     sum_band:bec :      0.56s CPU      0.56s WALL (   12800 calls)
     addusdens    :      6.05s CPU      8.72s WALL (       8 calls)

     Called by *egterg:
     h_psi        :   4538.22s CPU   4595.17s WALL (   63441 calls)
     s_psi        :     96.65s CPU     97.63s WALL (   63441 calls)
     g_psi        :     19.77s CPU     20.02s WALL (   49041 calls)
     cdiaghg      :    263.77s CPU    265.93s WALL (   60241 calls)
     cegterg:over :    273.96s CPU    276.20s WALL (   49041 calls)
     cegterg:upda :    222.90s CPU    224.83s WALL (   49041 calls)
     cegterg:last :    102.90s CPU    103.64s WALL (   14400 calls)

     Called by h_psi:
     h_psi:pot    :   4518.81s CPU   4574.21s WALL (   63441 calls)
     h_psi:calbec :     79.82s CPU     80.67s WALL (   63441 calls)
     vloc_psi     :   4335.93s CPU   4389.57s WALL (   63441 calls)
     add_vuspsi   :    102.30s CPU    103.43s WALL (   63441 calls)

     General routines
     calbec       :    115.89s CPU    117.23s WALL (   84241 calls)
     fft          :      0.38s CPU      0.43s WALL (      55 calls)
     ffts         :      0.04s CPU      0.05s WALL (      16 calls)
     fftw         :   4588.52s CPU   4645.39s WALL ( 3263794 calls)
     interpolate  :      0.08s CPU      0.09s WALL (       8 calls)
 
     Parallel routines
     fft_scatt_xy :    715.10s CPU    722.93s WALL ( 3263865 calls)
     fft_scatt_yz :    875.09s CPU    889.80s WALL ( 3263865 calls)

     PAW routines
     PAW_pot      :      0.36s CPU      0.36s WALL (       8 calls)
 
     PWSCF        :      1h56m CPU      1h58m WALL

 
   This run was terminated on:   9:55:28  16Oct2023            

=------------------------------------------------------------------------------=
   JOB DONE.
=------------------------------------------------------------------------------=
