ESCALE ; pCOOP file generated by LOBSTER. Energy is shifted such that the Fermi level lies at 0 eV.
        83          1       1001  -3.84082e+01   5.63581e+00  -1.36719e+00 
Average
No.1:Pb1->Te2(2.9950369440337972)
No.1:Pb1[6s]->Te2[5s](2.9950369440337972)
No.1:Pb1[6s]->Te2[5p_y](2.9950369440337972)
No.1:Pb1[6s]->Te2[5p_z](2.9950369440337972)
No.1:Pb1[6s]->Te2[5p_x](2.9950369440337972)
No.1:Pb1[6s]->Te2[4d_xy](2.9950369440337972)
No.1:Pb1[6s]->Te2[4d_yz](2.9950369440337972)
No.1:Pb1[6s]->Te2[4d_z^2](2.9950369440337972)
No.1:Pb1[6s]->Te2[4d_xz](2.9950369440337972)
No.1:Pb1[6s]->Te2[4d_x^2-y^2](2.9950369440337972)
No.1:Pb1[6p_y]->Te2[5s](2.9950369440337972)
No.1:Pb1[6p_y]->Te2[5p_y](2.9950369440337972)
No.1:Pb1[6p_y]->Te2[5p_z](2.9950369440337972)
No.1:Pb1[6p_y]->Te2[5p_x](2.9950369440337972)
No.1:Pb1[6p_y]->Te2[4d_xy](2.9950369440337972)
No.1:Pb1[6p_y]->Te2[4d_yz](2.9950369440337972)
No.1:Pb1[6p_y]->Te2[4d_z^2](2.9950369440337972)
No.1:Pb1[6p_y]->Te2[4d_xz](2.9950369440337972)
No.1:Pb1[6p_y]->Te2[4d_x^2-y^2](2.9950369440337972)
No.1:Pb1[6p_z]->Te2[5s](2.9950369440337972)
No.1:Pb1[6p_z]->Te2[5p_y](2.9950369440337972)
No.1:Pb1[6p_z]->Te2[5p_z](2.9950369440337972)
No.1:Pb1[6p_z]->Te2[5p_x](2.9950369440337972)
No.1:Pb1[6p_z]->Te2[4d_xy](2.9950369440337972)
No.1:Pb1[6p_z]->Te2[4d_yz](2.9950369440337972)
No.1:Pb1[6p_z]->Te2[4d_z^2](2.9950369440337972)
No.1:Pb1[6p_z]->Te2[4d_xz](2.9950369440337972)
No.1:Pb1[6p_z]->Te2[4d_x^2-y^2](2.9950369440337972)
No.1:Pb1[6p_x]->Te2[5s](2.9950369440337972)
No.1:Pb1[6p_x]->Te2[5p_y](2.9950369440337972)
No.1:Pb1[6p_x]->Te2[5p_z](2.9950369440337972)
No.1:Pb1[6p_x]->Te2[5p_x](2.9950369440337972)
No.1:Pb1[6p_x]->Te2[4d_xy](2.9950369440337972)
No.1:Pb1[6p_x]->Te2[4d_yz](2.9950369440337972)
No.1:Pb1[6p_x]->Te2[4d_z^2](2.9950369440337972)
No.1:Pb1[6p_x]->Te2[4d_xz](2.9950369440337972)
No.1:Pb1[6p_x]->Te2[4d_x^2-y^2](2.9950369440337972)
No.1:Pb1[5d_xy]->Te2[5s](2.9950369440337972)
No.1:Pb1[5d_xy]->Te2[5p_y](2.9950369440337972)
No.1:Pb1[5d_xy]->Te2[5p_z](2.9950369440337972)
No.1:Pb1[5d_xy]->Te2[5p_x](2.9950369440337972)
No.1:Pb1[5d_xy]->Te2[4d_xy](2.9950369440337972)
No.1:Pb1[5d_xy]->Te2[4d_yz](2.9950369440337972)
No.1:Pb1[5d_xy]->Te2[4d_z^2](2.9950369440337972)
No.1:Pb1[5d_xy]->Te2[4d_xz](2.9950369440337972)
No.1:Pb1[5d_xy]->Te2[4d_x^2-y^2](2.9950369440337972)
No.1:Pb1[5d_yz]->Te2[5s](2.9950369440337972)
No.1:Pb1[5d_yz]->Te2[5p_y](2.9950369440337972)
No.1:Pb1[5d_yz]->Te2[5p_z](2.9950369440337972)
No.1:Pb1[5d_yz]->Te2[5p_x](2.9950369440337972)
No.1:Pb1[5d_yz]->Te2[4d_xy](2.9950369440337972)
No.1:Pb1[5d_yz]->Te2[4d_yz](2.9950369440337972)
No.1:Pb1[5d_yz]->Te2[4d_z^2](2.9950369440337972)
No.1:Pb1[5d_yz]->Te2[4d_xz](2.9950369440337972)
No.1:Pb1[5d_yz]->Te2[4d_x^2-y^2](2.9950369440337972)
No.1:Pb1[5d_z^2]->Te2[5s](2.9950369440337972)
No.1:Pb1[5d_z^2]->Te2[5p_y](2.9950369440337972)
No.1:Pb1[5d_z^2]->Te2[5p_z](2.9950369440337972)
No.1:Pb1[5d_z^2]->Te2[5p_x](2.9950369440337972)
No.1:Pb1[5d_z^2]->Te2[4d_xy](2.9950369440337972)
No.1:Pb1[5d_z^2]->Te2[4d_yz](2.9950369440337972)
No.1:Pb1[5d_z^2]->Te2[4d_z^2](2.9950369440337972)
No.1:Pb1[5d_z^2]->Te2[4d_xz](2.9950369440337972)
No.1:Pb1[5d_z^2]->Te2[4d_x^2-y^2](2.9950369440337972)
No.1:Pb1[5d_xz]->Te2[5s](2.9950369440337972)
No.1:Pb1[5d_xz]->Te2[5p_y](2.9950369440337972)
No.1:Pb1[5d_xz]->Te2[5p_z](2.9950369440337972)
No.1:Pb1[5d_xz]->Te2[5p_x](2.9950369440337972)
No.1:Pb1[5d_xz]->Te2[4d_xy](2.9950369440337972)
No.1:Pb1[5d_xz]->Te2[4d_yz](2.9950369440337972)
No.1:Pb1[5d_xz]->Te2[4d_z^2](2.9950369440337972)
No.1:Pb1[5d_xz]->Te2[4d_xz](2.9950369440337972)
No.1:Pb1[5d_xz]->Te2[4d_x^2-y^2](2.9950369440337972)
No.1:Pb1[5d_x^2-y^2]->Te2[5s](2.9950369440337972)
No.1:Pb1[5d_x^2-y^2]->Te2[5p_y](2.9950369440337972)
No.1:Pb1[5d_x^2-y^2]->Te2[5p_z](2.9950369440337972)
No.1:Pb1[5d_x^2-y^2]->Te2[5p_x](2.9950369440337972)
No.1:Pb1[5d_x^2-y^2]->Te2[4d_xy](2.9950369440337972)
No.1:Pb1[5d_x^2-y^2]->Te2[4d_yz](2.9950369440337972)
No.1:Pb1[5d_x^2-y^2]->Te2[4d_z^2](2.9950369440337972)
No.1:Pb1[5d_x^2-y^2]->Te2[4d_xz](2.9950369440337972)
No.1:Pb1[5d_x^2-y^2]->Te2[4d_x^2-y^2](2.9950369440337972)
-37.04104   0.00000   0.00000   0.00000   0.00000   0.00000   0.00000   0.00000  -0.00000   0.00000  -0.00000   0.00000  -0.00000   0.00000   0.00000   0.00000   0.00000   0.00000   0.00000   0.00000   0.00000   0.00000   0.00000   0.00000  -0.00000   0.00000  -0.00000   0.00000  -0.00000   0.00000  -0.00000   0.00000   0.00000   0.00000  -0.00000   0.00000   0.00000   0.00000  -0.00000   0.00000   0.00000   0.00000   0.00000   0.00000  -0.00000   0.00000  -0.00000   0.00000  -0.00000   0.00000  -0.00000   0.00000   0.00000   0.00000   0.00000   0.00000   0.00000   0.00000   0.00000   0.00000  -0.00000   0.00000  -0.00000   0.00000   0.00000   0.00000  -0.00000   0.00000   0.00000   0.00000   0.00000   0.00000   0.00000   0.00000   0.00000   0.00000   0.00000   0.00000   0.00000   0.00000   0.00000   0.00000  -0.00000   0.00000   0.00000   0.00000   0.00000   0.00000  -0.00000   0.00000   0.00000   0.00000  -0.00000   0.00000   0.00000   0.00000  -0.00000   0.00000  -0.00000   0.00000   0.00000   0.00000  -0.00000   0.00000   0.00000   0.00000   0.00000   0.00000   0.00000   0.00000   0.00000   0.00000   0.00000   0.00000   0.00000   0.00000  -0.00000   0.00000  -0.00000   0.00000  -0.00000   0.00000   0.00000   0.00000   0.00000   0.00000   0.00000   0.00000   0.00000   0.00000   0.00000   0.00000  -0.00000   0.00000  -0.00000   0.00000   0.00000   0.00000   0.00000   0.00000   0.00000   0.00000   0.00000   0.00000  -0.00000   0.00000   0.00000   0.00000  -0.00000   0.00000   0.00000   0.00000   0.00000   0.00000  -0.00000   0.00000   0.00000   0.00000   0.00000   0.00000  -0.00000   0.00000   0.00000   0.00000  -0.00000   0.00000   0.00000
-36.99700   0.00000   0.00000   0.00000   0.00000   0.00000   0.00000  -0.00000  -0.00000  -0.00000  -0.00000  -0.00000  -0.00000   0.00000   0.00000   0.00000   0.00000   0.00000   0.00000   0.00000   0.00000   0.00000   0.00000  -0.00000  -0.00000  -0.00000  -0.00000  -0.00000  -0.00000  -0.00000  -0.00000   0.00000   0.00000  -0.00000  -0.00000   0.00000   0.00000  -0.00000  -0.00000   0.00000   0.00000   0.00000   0.00000  -0.00000  -0.00000  -0.00000  -0.00000  -0.00000  -0.00000  -0.00000  -0.00000   0.00000   0.00000   0.00000   0.00000   0.00000   0.00000   0.00000   0.00000  -0.00000  -0.00000  -0.00000  -0.00000   0.00000   0.00000  -0.00000  -0.00000   0.00000   0.00000   0.00000   0.00000   0.00000   0.00000   0.00000   0.00000   0.00000   0.00000   0.00000   0.00000   0.00000   0.00000  -0.00000  -0.00000   0.00000   0.00000   0.00000   0.00000  -0.00000  -0.00000   0.00000   0.00000  -0.00000  -0.00000   0.00000   0.00000  -0.00000  -0.00000  -0.00000  -0.00000   0.00000   0.00000  -0.00000  -0.00000   0.00000   0.00000   0.00000   0.00000   0.00000   0.00000   0.00000   0.00000   0.00000   0.00000   0.00000   0.00000  -0.00000  -0.00000  -0.00000  -0.00000  -0.00000  -0.00000   0.00000   0.00000   0.00000   0.00000   0.00000   0.00000   0.00000   0.00000   0.00000   0.00000  -0.00000  -0.00000  -0.00000  -0.00000   0.00000   0.00000   0.00000   0.00000   0.00000   0.00000   0.00000   0.00000  -0.00000  -0.00000   0.00000   0.00000  -0.00000  -0.00000   0.00000   0.00000   0.00000   0.00000  -0.00000  -0.00000   0.00000   0.00000   0.00000   0.00000  -0.00000  -0.00000   0.00000   0.00000  -0.00000  -0.00000   0.00000   0.00000
-36.95295   0.00000   0.00000   0.00000   0.00000   0.00000   0.00000  -0.00000  -0.00000  -0.00000  -0.00000  -0.00000  -0.00000   0.00000   0.00000   0.00000   0.00000   0.00000   0.00000   0.00000   0.00000   0.00000   0.00000  -0.00000  -0.00000  -0.00000  -0.00000  -0.00000  -0.00000  -0.00000  -0.00000   0.00000   0.00000  -0.00000  -0.00000   0.00000   0.00000  -0.00000  -0.00000   0.00000   0.00000   0.00000   0.00000  -0.00000  -0.00000  -0.00000  -0.00000  -0.00000  -0.00000  -0.00000  -0.00000   0.00000   0.00000   0.00000   0.00000   0.00000   0.00000   0.00000   0.00000  -0.00000  -0.00000  -0.00000  -0.00000   0.00000   0.00000  -0.00000  -0.00000   0.00000   0.00000   0.00000   0.00000   0.00000   0.00000   0.00000   0.00000   0.00000   0.00000   0.00000   0.00000   0.00000   0.00000  -0.00000  -0.00000   0.00000   0.00000   0.00000   0.00000  -0.00000  -0.00000   0.00000   0.00000  -0.00000  -0.00000   0.00000   0.00000  -0.00000  -0.00000  -0.00000  -0.00000   0.00000   0.00000  -0.00000  -0.00000   0.00000   0.00000   0.00000   0.00000   0.00000   0.00000   0.00000   0.00000   0.00000   0.00000   0.00000   0.00000  -0.00000  -0.00000  -0.00000  -0.00000  -0.00000  -0.00000   0.00000   0.00000   0.00000   0.00000   0.00000   0.00000   0.00000   0.00000   0.00000   0.00000  -0.00000  -0.00000  -0.00000  -0.00000   0.00000   0.00000   0.00000   0.00000   0.00000   0.00000   0.00000   0.00000  -0.00000  -0.00000   0.00000   0.00000  -0.00000  -0.00000   0.00000   0.00000   0.00000   0.00000  -0.00000  -0.00000   0.00000   0.00000   0.00000   0.00000  -0.00000  -0.00000   0.00000   0.00000  -0.00000  -0.00000   0.00000   0.00000
-36.90891   0.00000   0.00000   0.00001   0.00000   0.00000   0.00000  -0.00000  -0.00000  -0.00000  -0.00000  -0.00000  -0.00000   0.00000   0.00000   0.00000   0.00000   0.00000   0.00000   0.00000   0.00000   0.00000   0.00000  -0.00000  -0.00000  -0.00000  -0.00000  -0.00000  -0.00000  -0.00000  -0.00000   0.00000   0.00000  -0.00000  -0.00000   0.00000   0.00000  -0.00000  -0.00000   0.00000   0.00000   0.00000   0.00000  -0.00000  -0.00000  -0.00000  -0.00000  -0.00000  -0.00000  -0.00000  -0.00000   0.00000   0.00000   0.00000   0.00000   0.00000   0.00000   0.00000   0.00000  -0.00000  -0.00000  -0.00000  -0.00000   0.00000   0.00000  -0.00000  -0.00000   0.00000   0.00000   0.00000   0.00000   0.00000   0.00000   0.00000   0.00000   0.00000   0.00000   0.00000   0.00000   0.00000   0.00000  -0.00000  -0.00000   0.00000   0.00000   0.00000   0.00000  -0.00000  -0.00000   0.00000   0.00000  -0.00000  -0.00000   0.00000   0.00000  -0.00000  -0.00000  -0.00000  -0.00000   0.00000   0.00000  -0.00000  -0.00000   0.00000   0.00000   0.00000   0.00000   0.00000   0.00000   0.00000   0.00000   0.00000   0.00000   0.00000   0.00000  -0.00000  -0.00000  -0.00000  -0.00000  -0.00000  -0.00000   0.00000   0.00000   0.00000   0.00000   0.00000   0.00000   0.00000   0.00000   0.00000   0.00000  -0.00000  -0.00000  -0.00000  -0.00000   0.00000   0.00000   0.00000   0.00000   0.00000   0.00000   0.00000   0.00000  -0.00000  -0.00000   0.00000   0.00000  -0.00000  -0.00000   0.00000   0.00000   0.00000   0.00000  -0.00000  -0.00000   0.00000   0.00000   0.00000   0.00000  -0.00000  -0.00000   0.00000   0.00000  -0.00000  -0.00000   0.00000   0.00000
-36.86486   0.00000   0.00000   0.00002   0.00000   0.00000   0.00000  -0.00000  -0.00000  -0.00000  -0.00000  -0.00000  -0.00000   0.00000   0.00000   0.00000   0.00000   0.00000   0.00000   0.00000   0.00000   0.00000   0.00000  -0.00000  -0.00000  -0.00000  -0.00000  -0.00000  -0.00000  -0.00000  -0.00000   0.00000   0.00000  -0.00000  -0.00000   0.00000   0.00000  -0.00000  -0.00000   0.00001   0.00000   0.00000   0.00000  -0.00000  -0.00000  -0.00000  -0.00000  -0.00000  -0.00000  -0.00000  -0.00000   0.00000   0.00000   0.00000   0.00000   0.00000   0.00000   0.00000   0.00000  -0.00000  -0.00000  -0.00000  -0.00000   0.00000   0.00000  -0.00000  -0.00000   0.00001   0.00000   0.00000   0.00000   0.00000   0.00000   0.00000   0.00000   0.00000   0.00000   0.00000   0.00000   0.00000   0.00000  -0.00000  -0.00000   0.00000   0.00000   0.00000   0.00000  -0.00000  -0.00000   0.00000   0.00000  -0.00000  -0.00000   0.00000   0.00000  -0.00000  -0.00000  -0.00000  -0.00000   0.00000   0.00000  -0.00000  -0.00000   0.00000   0.00000   0.00000   0.00000   0.00000   0.00000   0.00000   0.00000   0.00000   0.00000   0.00000   0.00000  -0.00000  -0.00000  -0.00000  -0.00000  -0.00000  -0.00000   0.00000   0.00000   0.00000   0.00000   0.00000   0.00000   0.00000   0.00000   0.00000   0.00000  -0.00000  -0.00000  -0.00000  -0.00000   0.00000   0.00000   0.00000   0.00000   0.00000   0.00000   0.00000   0.00000  -0.00000  -0.00000   0.00000   0.00000  -0.00000  -0.00000   0.00000   0.00000   0.00000   0.00000  -0.00000  -0.00000   0.00000   0.00000   0.00000   0.00000  -0.00000  -0.00000   0.00000   0.00000  -0.00000  -0.00000   0.00000   0.00000
-36.82082   0.00000   0.00000   0.00005   0.00000   0.00000   0.00000  -0.00000  -0.00000  -0.00000  -0.00000  -0.00000  -0.00000   0.00001   0.00000   0.00000   0.00000   0.00000   0.00000   0.00000   0.00000   0.00000   0.00000  -0.00000  -0.00000  -0.00000  -0.00000  -0.00000  -0.00000  -0.00000  -0.00000   0.00000   0.00000  -0.00000  -0.00000   0.00000   0.00000  -0.00000  -0.00000   0.00001   0.00000   0.00000   0.00000  -0.00000  -0.00000  -0.00000  -0.00000  -0.00000  -0.00000  -0.00000  -0.00000   0.00000   0.00000   0.00000   0.00000   0.00000   0.00000   0.00000   0.00000  -0.00000  -0.00000  -0.00000  -0.00000   0.00000   0.00000  -0.00000  -0.00000   0.00002   0.00000   0.00000   0.00000   0.00000   0.00000   0.00000   0.00000   0.00000   0.00000   0.00000   0.00000   0.00000   0.00000  -0.00000  -0.00000   0.00000   0.00000   0.00000   0.00000  -0.00000  -0.00000   0.00000   0.00000  -0.00000  -0.00000   0.00000   0.00000  -0.00000  -0.00000  -0.00000  -0.00000   0.00000   0.00000  -0.00000  -0.00000   0.00000   0.00000   0.00000   0.00000   0.00000   0.00000   0.00000   0.00000   0.00000   0.00000   0.00000   0.00000  -0.00000  -0.00000  -0.00000  -0.00000  -0.00000  -0.00000   0.00000   0.00000   0.00000   0.00000   0.00000   0.00000   0.00000   0.00000   0.00000   0.00000  -0.00000  -0.00000  -0.00000  -0.00000   0.00000   0.00000   0.00000   0.00000   0.00000   0.00000   0.00000   0.00000  -0.00000  -0.00000   0.00000   0.00000  -0.00000  -0.00000   0.00000   0.00000   0.00000   0.00000  -0.00000  -0.00000   0.00000   0.00000   0.00000   0.00000  -0.00000  -0.00000   0.00000   0.00000  -0.00000  -0.00000   0.00000   0.00000
-36.77678   0.00000   0.00000   0.00010   0.00001   0.00000   0.00000  -0.00000  -0.00000  -0.00000  -0.00000  -0.00000  -0.00000   0.00001   0.00000   0.00000   0.00000   0.00000   0.00000   0.00000   0.00000   0.00000   0.00000  -0.00000  -0.00000  -0.00000  -0.00000  -0.00000  -0.00000  -0.00000  -0.00000   0.00000   0.00000  -0.00000  -0.00000   0.00000   0.00000  -0.00000  -0.00000   0.00002   0.00000   0.00000   0.00000  -0.00000  -0.00000  -0.00000  -0.00000  -0.00000  -0.00000  -0.00000  -0.00000   0.00000   0.00000   0.00000   0.00000   0.00000   0.00000   0.00000   0.00000  -0.00000  -0.00000  -0.00000  -0.00000   0.00000   0.00000  -0.00000  -0.00000   0.00003   0.00000   0.00000   0.00000   0.00000   0.00000   0.00000   0.00000   0.00000   0.00000   0.00000   0.00000   0.00000   0.00000  -0.00000  -0.00000   0.00000   0.00000   0.00000   0.00000  -0.00000  -0.00000   0.00000   0.00000  -0.00000  -0.00000   0.00000   0.00000  -0.00000  -0.00000  -0.00000  -0.00000   0.00000   0.00000  -0.00000  -0.00000   0.00000   0.00000   0.00000   0.00000   0.00000   0.00000   0.00000   0.00000   0.00000   0.00000   0.00000   0.00000  -0.00000  -0.00000  -0.00000  -0.00000  -0.00000  -0.00000   0.00000   0.00000   0.00000   0.00000   0.00000   0.00000   0.00000   0.00000   0.00000   0.00000  -0.00000  -0.00000  -0.00000  -0.00000   0.00000   0.00000   0.00000   0.00000   0.00000   0.00000   0.00000   0.00000  -0.00000  -0.00000   0.00000   0.00000  -0.00000  -0.00000   0.00000   0.00000   0.00000   0.00000  -0.00000  -0.00000   0.00000   0.00000   0.00000   0.00000  -0.00000  -0.00000   0.00000   0.00000  -0.00000  -0.00000   0.00000   0.00000
-36.73273   0.00000   0.00000   0.00018   0.00002   0.00000   0.00000  -0.00000  -0.00000  -0.00000  -0.00000  -0.00000  -0.00000   0.00003   0.00000   0.00000   0.00000   0.00001   0.00000   0.00000   0.00000   0.00001   0.00000  -0.00000  -0.00000  -0.00000  -0.00000  -0.00000  -0.00000  -0.00000  -0.00000   0.00000   0.00000  -0.00000  -0.00000   0.00000   0.00000  -0.00000  -0.00000   0.00004   0.00000   0.00000   0.00000  -0.00000  -0.00000  -0.00000  -0.00000  -0.00000  -0.00000  -0.00000  -0.00000   0.00000   0.00000   0.00000   0.00000   0.00001   0.00000   0.00000   0.00000  -0.00000  -0.00000  -0.00000  -0.00000   0.00000   0.00000  -0.00000  -0.00000   0.00006   0.00001   0.00000   0.00000   0.00001   0.00000   0.00000   0.00000   0.00000   0.00000   0.00000   0.00000   0.00000   0.00000  -0.00000  -0.00000   0.00000   0.00000   0.00000   0.00000  -0.00000  -0.00000   0.00000   0.00000  -0.00000  -0.00000   0.00000   0.00000  -0.00000  -0.00000  -0.00000  -0.00000   0.00000   0.00000  -0.00000  -0.00000   0.00000   0.00000   0.00000   0.00000   0.00000   0.00000   0.00000   0.00000   0.00000   0.00000   0.00000   0.00000  -0.00000  -0.00000  -0.00000  -0.00000  -0.00000  -0.00000   0.00000   0.00000   0.00000   0.00000   0.00000   0.00000   0.00000   0.00000   0.00000   0.00000  -0.00000  -0.00000  -0.00000  -0.00000   0.00000   0.00000   0.00000   0.00000   0.00000   0.00000   0.00000   0.00000  -0.00000  -0.00000   0.00000   0.00000  -0.00000  -0.00000   0.00000   0.00000   0.00000   0.00000  -0.00000  -0.00000   0.00000   0.00000   0.00000   0.00000  -0.00000  -0.00000   0.00000   0.00000  -0.00000  -0.00000   0.00000   0.00000
-36.68869   0.00001   0.00000   0.00029   0.00003   0.00000   0.00000  -0.00000  -0.00000  -0.00000  -0.00000  -0.00000  -0.00000   0.00004   0.00000   0.00000   0.00000   0.00001   0.00000   0.00000   0.00000   0.00001   0.00000  -0.00000  -0.00000  -0.00000  -0.00000  -0.00000  -0.00000  -0.00000  -0.00000   0.00000   0.00000  -0.00000  -0.00000   0.00000   0.00000  -0.00000  -0.00000   0.00007   0.00001   0.00000   0.00000  -0.00000  -0.00000  -0.00000  -0.00000  -0.00000  -0.00000  -0.00000  -0.00000   0.00001   0.00000   0.00000   0.00000   0.00002   0.00000   0.00000   0.00000  -0.00000  -0.00000  -0.00000  -0.00000   0.00000   0.00000  -0.00000  -0.00000   0.00010   0.00001   0.00000   0.00000   0.00001   0.00000   0.00000   0.00000   0.00000   0.00000   0.00000   0.00000   0.00000   0.00000  -0.00000  -0.00000   0.00000   0.00000   0.00001   0.00000  -0.00000  -0.00000   0.00000   0.00000  -0.00000  -0.00000   0.00001   0.00000  -0.00000  -0.00000  -0.00000  -0.00000   0.00000   0.00000  -0.00000  -0.00000   0.00000   0.00000   0.00000   0.00000   0.00000   0.00000   0.00000   0.00000   0.00000   0.00000   0.00000   0.00000  -0.00000  -0.00000  -0.00000  -0.00000  -0.00000  -0.00000   0.00000   0.00000   0.00000   0.00000   0.00000   0.00000   0.00000   0.00000   0.00000   0.00000  -0.00000  -0.00000  -0.00000  -0.00000   0.00000   0.00000   0.00000   0.00000   0.00000   0.00000   0.00000   0.00000  -0.00000  -0.00000   0.00000   0.00000  -0.00000  -0.00000   0.00000   0.00000   0.00000   0.00000  -0.00000  -0.00000   0.00000   0.00000   0.00001   0.00000  -0.00000  -0.00000   0.00000   0.00000  -0.00000  -0.00000   0.00000   0.00000
-36.64464   0.00001   0.00000   0.00044   0.00005   0.00000   0.00000  -0.00000  -0.00000  -0.00000  -0.00000  -0.00000  -0.00000   0.00006   0.00001   0.00000   0.00000   0.00001   0.00000   0.00000   0.00000   0.00002   0.00000  -0.00000  -0.00000  -0.00000  -0.00000  -0.00000  -0.00000  -0.00000  -0.00000   0.00000   0.00000  -0.00000  -0.00000   0.00001   0.00000  -0.00000  -0.00000   0.00010   0.00001   0.00000   0.00000  -0.00000  -0.00000  -0.00000  -0.00000  -0.00000  -0.00000  -0.00000  -0.00000   0.00001   0.00000   0.00000   0.00000   0.00003   0.00000   0.00000   0.00000  -0.00000  -0.00000  -0.00000  -0.00000   0.00000   0.00000  -0.00000  -0.00000   0.00014   0.00002   0.00000   0.00000   0.00002   0.00000   0.00000   0.00000   0.00000   0.00000   0.00000   0.00000   0.00000   0.00000  -0.00000  -0.00000   0.00000   0.00000   0.00001   0.00000  -0.00000  -0.00000   0.00000   0.00000  -0.00000  -0.00000   0.00001   0.00000  -0.00000  -0.00000  -0.00000  -0.00000   0.00000   0.00000  -0.00000  -0.00000   0.00000   0.00000   0.00000   0.00000   0.00000   0.00000   0.00000   0.00000   0.00000   0.00000   0.00000   0.00000  -0.00000  -0.00000  -0.00000  -0.00000  -0.00000  -0.00000   0.00000   0.00000   0.00000   0.00000   0.00000   0.00000   0.00000   0.00000   0.00000   0.00000  -0.00000  -0.00000  -0.00000  -0.00000   0.00000   0.00000   0.00000   0.00000   0.00000   0.00000   0.00000   0.00000  -0.00000  -0.00000   0.00000   0.00000  -0.00000  -0.00000   0.00000   0.00000   0.00000   0.00000  -0.00000  -0.00000   0.00000   0.00000   0.00001   0.00000  -0.00000  -0.00000   0.00000   0.00000  -0.00000  -0.00000   0.00000   0.00000
-36.60060   0.00001   0.00000   0.00061   0.00008   0.00000   0.00000  -0.00000  -0.00000  -0.00000  -0.00000  -0.00000  -0.00000   0.00008   0.00001   0.00000   0.00000   0.00002   0.00000   0.00000   0.00000   0.00003   0.00000  -0.00000  -0.00000  -0.00000  -0.00000  -0.00000  -0.00000  -0.00000  -0.00000   0.00000   0.00000  -0.00000  -0.00000   0.00001   0.00000  -0.00000  -0.00000   0.00014   0.00002   0.00000   0.00000  -0.00000  -0.00000  -0.00000  -0.00000  -0.00000  -0.00000  -0.00000  -0.00000   0.00001   0.00000   0.00000   0.00000   0.00004   0.00000   0.00000   0.00000  -0.00000  -0.00000  -0.00000  -0.00000   0.00000   0.00000  -0.00000  -0.00000   0.00020   0.00002   0.00000   0.00000   0.00003   0.00000   0.00000   0.00000   0.00000   0.00000   0.00000   0.00000   0.00000   0.00000  -0.00000  -0.00000   0.00000   0.00000   0.00001   0.00000  -0.00000  -0.00000   0.00000   0.00000  -0.00000  -0.00000   0.00001   0.00000  -0.00000  -0.00000  -0.00000  -0.00000   0.00000   0.00000  -0.00000  -0.00000   0.00000   0.00000   0.00000   0.00000   0.00000   0.00000   0.00000   0.00000   0.00000   0.00000   0.00000   0.00000  -0.00000  -0.00000  -0.00000  -0.00000  -0.00000  -0.00000   0.00001   0.00000   0.00000   0.00000   0.00000   0.00000   0.00000   0.00000   0.00000   0.00000  -0.00000  -0.00000  -0.00000  -0.00000   0.00000   0.00000   0.00000   0.00000   0.00000   0.00000   0.00000   0.00000  -0.00000  -0.00000   0.00000   0.00000  -0.00000  -0.00000   0.00000   0.00000   0.00000   0.00000  -0.00000  -0.00000   0.00000   0.00000   0.00001   0.00000  -0.00000  -0.00000   0.00000   0.00000  -0.00000  -0.00000   0.00000   0.00000
-36.55656   0.00002   0.00000   0.00076   0.00011   0.00000   0.00000  -0.00000  -0.00000  -0.00000  -0.00000  -0.00000  -0.00000   0.00010   0.00002   0.00000   0.00000   0.00003   0.00000   0.00000   0.00000   0.00003   0.00001  -0.00000  -0.00000  -0.00000  -0.00000  -0.00000  -0.00000  -0.00001  -0.00000   0.00000   0.00000  -0.00000  -0.00000   0.00001   0.00000  -0.00000  -0.00000   0.00017   0.00003   0.00000   0.00000  -0.00000  -0.00000  -0.00000  -0.00000  -0.00000  -0.00000  -0.00000  -0.00000   0.00002   0.00000   0.00000   0.00000   0.00005   0.00001   0.00000   0.00000  -0.00000  -0.00000  -0.00001  -0.00000   0.00000   0.00000  -0.00000  -0.00000   0.00024   0.00004   0.00000   0.00000   0.00004   0.00001   0.00000   0.00000   0.00000   0.00000   0.00000   0.00000   0.00000   0.00000  -0.00000  -0.00000   0.00000   0.00000   0.00001   0.00000  -0.00000  -0.00000   0.00001   0.00000  -0.00000  -0.00000   0.00001   0.00000  -0.00000  -0.00000  -0.00000  -0.00000   0.00000   0.00000  -0.00000  -0.00000   0.00000   0.00000   0.00000   0.00000   0.00000   0.00000   0.00000   0.00000   0.00000   0.00000   0.00000   0.00000  -0.00000  -0.00000  -0.00000  -0.00000  -0.00000  -0.00000   0.00001   0.00000   0.00000   0.00000   0.00000   0.00000   0.00000   0.00000   0.00000   0.00000  -0.00000  -0.00000  -0.00000  -0.00000   0.00000   0.00000   0.00000   0.00000   0.00000   0.00000   0.00000   0.00000  -0.00000  -0.00000   0.00000   0.00000  -0.00000  -0.00000   0.00000   0.00000   0.00000   0.00000  -0.00000  -0.00000   0.00000   0.00000   0.00001   0.00000  -0.00000  -0.00000   0.00000   0.00000  -0.00000  -0.00000   0.00000   0.00000
-36.51251   0.00002   0.00000   0.00087   0.00015   0.00000   0.00000  -0.00000  -0.00000  -0.00000  -0.00000  -0.00000  -0.00000   0.00012   0.00002   0.00000   0.00000   0.00004   0.00001   0.00000   0.00000   0.00004   0.00001  -0.00000  -0.00000  -0.00000  -0.00000  -0.00000  -0.00000  -0.00001  -0.00000   0.00000   0.00000  -0.00000  -0.00000   0.00002   0.00000  -0.00000  -0.00000   0.00019   0.00003   0.00000   0.00000  -0.00000  -0.00000  -0.00000  -0.00000  -0.00000  -0.00000  -0.00000  -0.00000   0.00002   0.00000   0.00000   0.00000   0.00006   0.00001   0.00000   0.00000  -0.00000  -0.00000  -0.00001  -0.00000   0.00000   0.00000  -0.00001  -0.00000   0.00027   0.00005   0.00000   0.00000   0.00005   0.00001   0.00000   0.00000   0.00000   0.00000   0.00000   0.00000   0.00000   0.00000  -0.00000  -0.00000   0.00000   0.00000   0.00002   0.00000  -0.00000  -0.00000   0.00001   0.00000  -0.00000  -0.00000   0.00002   0.00000  -0.00000  -0.00000  -0.00000  -0.00000   0.00000   0.00000  -0.00000  -0.00000   0.00000   0.00000   0.00000   0.00000   0.00000   0.00000   0.00000   0.00000   0.00000   0.00000   0.00000   0.00000  -0.00000  -0.00000  -0.00000  -0.00000  -0.00000  -0.00000   0.00001   0.00000   0.00000   0.00000   0.00000   0.00000   0.00000   0.00000   0.00000   0.00000  -0.00000  -0.00000  -0.00000  -0.00000   0.00000   0.00000   0.00000   0.00000   0.00000   0.00000   0.00000   0.00000  -0.00000  -0.00000   0.00000   0.00000  -0.00000  -0.00000   0.00000   0.00000   0.00000   0.00000  -0.00000  -0.00000   0.00000   0.00000   0.00002   0.00000  -0.00000  -0.00000   0.00000   0.00000  -0.00000  -0.00000   0.00000   0.00000
-36.46847   0.00002   0.00000   0.00090   0.00019   0.00000   0.00000  -0.00000  -0.00000  -0.00000  -0.00000  -0.00000  -0.00000   0.00012   0.00003   0.00000   0.00000   0.00004   0.00001   0.00000   0.00000   0.00004   0.00001  -0.00000  -0.00000  -0.00000  -0.00000  -0.00000  -0.00000  -0.00001  -0.00000   0.00000   0.00000  -0.00000  -0.00000   0.00002   0.00000  -0.00000  -0.00000   0.00019   0.00004   0.00000   0.00000  -0.00000  -0.00000  -0.00000  -0.00000  -0.00000  -0.00000  -0.00000  -0.00000   0.00002   0.00000   0.00000   0.00000   0.00006   0.00001   0.00000   0.00000  -0.00000  -0.00000  -0.00001  -0.00000   0.00000   0.00000  -0.00001  -0.00000   0.00027   0.00006   0.00000   0.00000   0.00006   0.00001   0.00000   0.00000   0.00000   0.00000   0.00000   0.00000   0.00000   0.00000  -0.00000  -0.00000   0.00000   0.00000   0.00002   0.00000  -0.00000  -0.00000   0.00001   0.00000  -0.00000  -0.00000   0.00002   0.00000  -0.00000  -0.00000  -0.00000  -0.00000   0.00000   0.00000  -0.00000  -0.00000   0.00000   0.00000   0.00000   0.00000   0.00000   0.00000   0.00000   0.00000   0.00000   0.00000   0.00000   0.00000  -0.00000  -0.00000  -0.00000  -0.00000  -0.00000  -0.00000   0.00001   0.00000   0.00000   0.00000   0.00001   0.00000   0.00000   0.00000   0.00000   0.00000  -0.00000  -0.00000  -0.00000  -0.00000   0.00000   0.00000   0.00000   0.00000   0.00000   0.00000   0.00000   0.00000  -0.00000  -0.00000   0.00000   0.00000  -0.00000  -0.00000   0.00000   0.00000   0.00000   0.00000  -0.00000  -0.00000   0.00000   0.00000   0.00002   0.00000  -0.00000  -0.00000   0.00000   0.00000  -0.00000  -0.00000   0.00000   0.00000
-36.42442   0.00002   0.00001   0.00084   0.00022   0.00000   0.00000  -0.00000  -0.00000  -0.00000  -0.00000  -0.00000  -0.00000   0.00011   0.00003   0.00000   0.00000   0.00004   0.00001   0.00000   0.00000   0.00004   0.00001  -0.00000  -0.00000  -0.00000  -0.00000  -0.00000  -0.00000  -0.00001  -0.00000   0.00000   0.00000  -0.00000  -0.00000   0.00002   0.00000  -0.00000  -0.00000   0.00018   0.00005   0.00000   0.00000  -0.00000  -0.00000  -0.00000  -0.00000  -0.00000  -0.00000  -0.00000  -0.00000   0.00002   0.00000   0.00000   0.00000   0.00006   0.00001   0.00000   0.00000  -0.00000  -0.00000  -0.00001  -0.00000   0.00000   0.00000  -0.00001  -0.00000   0.00025   0.00007   0.00000   0.00000   0.00006   0.00001   0.00000   0.00000   0.00000   0.00000   0.00000   0.00000   0.00000   0.00000  -0.00000  -0.00000   0.00000   0.00000   0.00002   0.00000  -0.00000  -0.00000   0.00001   0.00000  -0.00000  -0.00000   0.00001   0.00000  -0.00000  -0.00000  -0.00000  -0.00000   0.00000   0.00000  -0.00000  -0.00000   0.00000   0.00000   0.00000   0.00000   0.00000   0.00000   0.00000   0.00000   0.00000   0.00000   0.00000   0.00000  -0.00000  -0.00000  -0.00000  -0.00000  -0.00000  -0.00000   0.00001   0.00000   0.00000   0.00000   0.00001   0.00000   0.00000   0.00000   0.00000   0.00000  -0.00000  -0.00000  -0.00000  -0.00000   0.00000   0.00000   0.00000   0.00000   0.00000   0.00000   0.00000   0.00000  -0.00000  -0.00000   0.00000   0.00000  -0.00000  -0.00000   0.00000   0.00000   0.00000   0.00000  -0.00000  -0.00000   0.00000   0.00000   0.00001   0.00000  -0.00000  -0.00000   0.00000   0.00000  -0.00000  -0.00000   0.00000   0.00000