   2    2    1    1
  3.6280272e+02   5.1875562e-10   5.1875562e-10   1.5567335e-09   0.0000000e+00
            0.000000e+00
  CAR
 DOS and projected DOS file by LOBSTER. Energy is shifted such that the Fermi level lies at 0 eV. 
      5.63581193     -38.40823211  1001      -1.36719107       1.00000000
-37.04104   0.00000   0.00047
-36.99700   0.02603   0.00162
-36.95295   0.07833   0.00507
-36.90891   0.21441   0.01451
-36.86486   0.53388   0.03803
-36.82082   1.20934   0.09129
-36.77678   2.49207   0.20105
-36.73273   4.67191   0.40682
-36.68869   7.96812   0.75777
-36.64464  12.36367   1.30232
-36.60060  17.45302   2.07102
-36.55656  22.41425   3.05823
-36.51251  26.18809   4.21166
-36.46847  27.83576   5.43766
-36.42442  26.91614   6.62316
-36.38038  23.67672   7.66597
-36.33634  18.94593   8.50043
-36.29229  13.79051   9.10782
-36.24825   9.13056   9.50997
-36.20420   5.49855   9.75214
-36.16016   3.01170   9.88479
-36.11612   1.50026   9.95087
-36.07207   0.67966   9.98080
-36.02803   0.28000   9.99314
-35.98398   0.10489   9.99776
-35.93994   0.03573   9.99933
-35.89590   0.01107   9.99982
-35.85185   0.00312   9.99995
-35.80781   0.00080   9.99999
-35.76376   0.00019  10.00000
-35.71972   0.00004  10.00000
-35.67568   0.00001  10.00000
-35.63163   0.00000  10.00000
-35.58759   0.00000  10.00000
-35.54354   0.00000  10.00000
-35.49950   0.00000  10.00000
-35.45546   0.00000  10.00000
-35.41141   0.00000  10.00000
-35.36737   0.00000  10.00000
-35.32332   0.00000  10.00000
-35.27928   0.00000  10.00000
-35.23524   0.00000  10.00000
-35.19119   0.00000  10.00000
-35.14715   0.00000  10.00000
-35.10310   0.00000  10.00000
-35.05906   0.00000  10.00000
-35.01502   0.00000  10.00000
-34.97097   0.00000  10.00000
-34.92693   0.00000  10.00000
-34.88288   0.00000  10.00000
-34.83884   0.00000  10.00000
-34.79479   0.00000  10.00000
-34.75075   0.00000  10.00000
-34.70671   0.00000  10.00000
-34.66266   0.00000  10.00000
-34.61862   0.00000  10.00000
-34.57457   0.00000  10.00000
-34.53053   0.00000  10.00000
-34.48649   0.00000  10.00000
-34.44244   0.00000  10.00000
-34.39840   0.00000  10.00000
-34.35435   0.00000  10.00000
-34.31031   0.00000  10.00000
-34.26627   0.00000  10.00000
-34.22222   0.00000  10.00000
-34.17818   0.00000  10.00000
-34.13413   0.00000  10.00000
-34.09009   0.00000  10.00000
-34.04605   0.00000  10.00000
-34.00200   0.00000  10.00000
-33.95796   0.00000  10.00000
-33.91391   0.00000  10.00000
-33.86987   0.00000  10.00000
-33.82583   0.00000  10.00000
-33.78178   0.00000  10.00000
-33.73774   0.00000  10.00000
-33.69369   0.00000  10.00000
-33.64965   0.00000  10.00000
-33.60561   0.00000  10.00000
-33.56156   0.00000  10.00000
-33.51752   0.00000  10.00000
-33.47347   0.00000  10.00000
-33.42943   0.00000  10.00000
-33.38539   0.00000  10.00000
-33.34134   0.00000  10.00000
-33.29730   0.00000  10.00000
-33.25325   0.00000  10.00000
-33.20921   0.00000  10.00000
-33.16517   0.00000  10.00000
-33.12112   0.00000  10.00000
-33.07708   0.00000  10.00000
-33.03303   0.00000  10.00000
-32.98899   0.00000  10.00000
-32.94494   0.00000  10.00000
-32.90090   0.00000  10.00000
-32.85686   0.00000  10.00000
-32.81281   0.00000  10.00000
-32.76877   0.00000  10.00000
-32.72472   0.00000  10.00000
-32.68068   0.00000  10.00000
-32.63664   0.00000  10.00000
-32.59259   0.00000  10.00000
-32.54855   0.00000  10.00000
-32.50450   0.00000  10.00000
-32.46046   0.00000  10.00000
-32.41642   0.00000  10.00000
-32.37237   0.00000  10.00000
-32.32833   0.00000  10.00000
-32.28428   0.00000  10.00000
-32.24024   0.00000  10.00000
-32.19620   0.00000  10.00000
-32.15215   0.00000  10.00000
-32.10811   0.00000  10.00000
-32.06406   0.00000  10.00000
-32.02002   0.00000  10.00000
-31.97598   0.00000  10.00000
-31.93193   0.00000  10.00000
-31.88789   0.00000  10.00000
-31.84384   0.00000  10.00000
-31.79980   0.00000  10.00000
-31.75576   0.00000  10.00000
-31.71171   0.00000  10.00000
-31.66767   0.00000  10.00000
-31.62362   0.00000  10.00000
-31.57958   0.00000  10.00000
-31.53554   0.00000  10.00000
-31.49149   0.00000  10.00000
-31.44745   0.00000  10.00000
-31.40340   0.00000  10.00000
-31.35936   0.00000  10.00000
-31.31532   0.00000  10.00000
-31.27127   0.00000  10.00000
-31.22723   0.00000  10.00000
-31.18318   0.00000  10.00000
-31.13914   0.00000  10.00000
-31.09510   0.00000  10.00000
-31.05105   0.00000  10.00000
-31.00701   0.00000  10.00000
-30.96296   0.00000  10.00000
-30.91892   0.00000  10.00000
-30.87487   0.00000  10.00000
-30.83083   0.00000  10.00000
-30.78679   0.00000  10.00000
-30.74274   0.00000  10.00000
-30.69870   0.00000  10.00000
-30.65465   0.00000  10.00000
-30.61061   0.00000  10.00000
-30.56657   0.00000  10.00000
-30.52252   0.00000  10.00000
-30.47848   0.00000  10.00000
-30.43443   0.00000  10.00000
-30.39039   0.00000  10.00000
-30.34635   0.00000  10.00000
-30.30230   0.00000  10.00000
-30.25826   0.00000  10.00000
-30.21421   0.00000  10.00000
-30.17017   0.00000  10.00000
-30.12613   0.00000  10.00000
-30.08208   0.00000  10.00000
-30.03804   0.00000  10.00000
-29.99399   0.00000  10.00000
-29.94995   0.00000  10.00000
-29.90591   0.00000  10.00000
-29.86186   0.00000  10.00000
-29.81782   0.00000  10.00000
-29.77377   0.00000  10.00000
-29.72973   0.00000  10.00000
-29.68569   0.00000  10.00000
-29.64164   0.00000  10.00000
-29.59760   0.00000  10.00000
-29.55355   0.00000  10.00000
-29.50951   0.00000  10.00000
-29.46547   0.00000  10.00000
-29.42142   0.00000  10.00000
-29.37738   0.00000  10.00000
-29.33333   0.00000  10.00000
-29.28929   0.00000  10.00000
-29.24525   0.00000  10.00000
-29.20120   0.00000  10.00000
-29.15716   0.00000  10.00000
-29.11311   0.00000  10.00000
-29.06907   0.00000  10.00000
-29.02503   0.00000  10.00000
-28.98098   0.00000  10.00000
-28.93694   0.00000  10.00000
-28.89289   0.00000  10.00000
-28.84885   0.00000  10.00000
-28.80480   0.00000  10.00000
-28.76076   0.00000  10.00000
-28.71672   0.00000  10.00000
-28.67267   0.00000  10.00000
-28.62863   0.00000  10.00000
-28.58458   0.00000  10.00000
-28.54054   0.00000  10.00000
-28.49650   0.00000  10.00000
-28.45245   0.00000  10.00000
-28.40841   0.00000  10.00000
-28.36436   0.00000  10.00000
-28.32032   0.00000  10.00000
-28.27628   0.00000  10.00000
-28.23223   0.00000  10.00000
-28.18819   0.00000  10.00000
-28.14414   0.00000  10.00000
-28.10010   0.00000  10.00000
-28.05606   0.00000  10.00000
-28.01201   0.00000  10.00000
-27.96797   0.00000  10.00000
-27.92392   0.00000  10.00000
-27.87988   0.00000  10.00000
-27.83584   0.00000  10.00000
-27.79179   0.00000  10.00000
-27.74775   0.00000  10.00000
-27.70370   0.00000  10.00000
-27.65966   0.00000  10.00000
-27.61562   0.00000  10.00000
-27.57157   0.00000  10.00000
-27.52753   0.00000  10.00000
-27.48348   0.00000  10.00000
-27.43944   0.00000  10.00000
-27.39540   0.00000  10.00000
-27.35135   0.00000  10.00000
-27.30731   0.00000  10.00000
-27.26326   0.00000  10.00000
-27.21922   0.00000  10.00000
-27.17518   0.00000  10.00000
-27.13113   0.00000  10.00000
-27.08709   0.00000  10.00000
-27.04304   0.00000  10.00000
-26.99900   0.00000  10.00000
-26.95495   0.00000  10.00000
-26.91091   0.00000  10.00000
-26.86687   0.00000  10.00000
-26.82282   0.00000  10.00000
-26.77878   0.00000  10.00000
-26.73473   0.00000  10.00000
-26.69069   0.00000  10.00000
-26.64665   0.00000  10.00000
-26.60260   0.00000  10.00000
-26.55856   0.00000  10.00000
-26.51451   0.00000  10.00000
-26.47047   0.00000  10.00000
-26.42643   0.00000  10.00000
-26.38238   0.00000  10.00000
-26.33834   0.00000  10.00000
-26.29429   0.00000  10.00000
-26.25025   0.00000  10.00000
-26.20621   0.00000  10.00000
-26.16216   0.00000  10.00000
-26.11812   0.00000  10.00000
-26.07407   0.00000  10.00000
-26.03003   0.00000  10.00000
-25.98599   0.00000  10.00000
-25.94194   0.00000  10.00000
-25.89790   0.00000  10.00000
-25.85385   0.00000  10.00000
-25.80981   0.00000  10.00000
-25.76577   0.00000  10.00000
-25.72172   0.00000  10.00000
-25.67768   0.00000  10.00000
-25.63363   0.00000  10.00000
-25.58959   0.00000  10.00000
-25.54555   0.00000  10.00000
-25.50150   0.00000  10.00000
-25.45746   0.00000  10.00000
-25.41341   0.00000  10.00000
-25.36937   0.00000  10.00000
-25.32533   0.00000  10.00000
-25.28128   0.00000  10.00000
-25.23724   0.00000  10.00000
-25.19319   0.00000  10.00000
-25.14915   0.00000  10.00000
-25.10511   0.00000  10.00000
-25.06106   0.00000  10.00000
-25.01702   0.00000  10.00000
-24.97297   0.00000  10.00000
-24.92893   0.00000  10.00000
-24.88488   0.00000  10.00000
-24.84084   0.00000  10.00000
-24.79680   0.00000  10.00000
-24.75275   0.00000  10.00000
-24.70871   0.00000  10.00000
-24.66466   0.00000  10.00000
-24.62062   0.00000  10.00000
-24.57658   0.00000  10.00000
-24.53253   0.00000  10.00000
-24.48849   0.00000  10.00000
-24.44444   0.00000  10.00000
-24.40040   0.00000  10.00000
-24.35636   0.00000  10.00000
-24.31231   0.00000  10.00000
-24.26827   0.00000  10.00000
-24.22422   0.00000  10.00000
-24.18018   0.00000  10.00000
-24.13614   0.00000  10.00000
-24.09209   0.00000  10.00000
-24.04805   0.00000  10.00000
-24.00400   0.00000  10.00000
-23.95996   0.00000  10.00000
-23.91592   0.00000  10.00000
-23.87187   0.00000  10.00000
-23.82783   0.00000  10.00000
-23.78378   0.00000  10.00000
-23.73974   0.00000  10.00000
-23.69570   0.00000  10.00000
-23.65165   0.00000  10.00000
-23.60761   0.00000  10.00000
-23.56356   0.00000  10.00000
-23.51952   0.00000  10.00000
-23.47548   0.00000  10.00000
-23.43143   0.00000  10.00000
-23.38739   0.00000  10.00000
-23.34334   0.00000  10.00000
-23.29930   0.00000  10.00000
-23.25526   0.00000  10.00000
-23.21121   0.00000  10.00000
-23.16717   0.00000  10.00000
-23.12312   0.00000  10.00000
-23.07908   0.00000  10.00000
-23.03504   0.00000  10.00000
-22.99099   0.00000  10.00000
-22.94695   0.00000  10.00000
-22.90290   0.00000  10.00000
-22.85886   0.00000  10.00000
-22.81481   0.00000  10.00000
-22.77077   0.00000  10.00000
-22.72673   0.00000  10.00000
-22.68268   0.00000  10.00000
-22.63864   0.00000  10.00000
-22.59459   0.00000  10.00000
-22.55055   0.00000  10.00000
-22.50651   0.00000  10.00000
-22.46246   0.00000  10.00000
-22.41842   0.00000  10.00000
-22.37437   0.00000  10.00000
-22.33033   0.00000  10.00000
-22.28629   0.00000  10.00000
-22.24224   0.00000  10.00000
-22.19820   0.00000  10.00000
-22.15415   0.00000  10.00000
-22.11011   0.00000  10.00000
-22.06607   0.00000  10.00000
-22.02202   0.00000  10.00000
-21.97798   0.00000  10.00000
-21.93393   0.00000  10.00000
-21.88989   0.00000  10.00000
-21.84585   0.00000  10.00000
-21.80180   0.00000  10.00000
-21.75776   0.00000  10.00000
-21.71371   0.00000  10.00000
-21.66967   0.00000  10.00000
-21.62563   0.00000  10.00000
-21.58158   0.00000  10.00000
-21.53754   0.00000  10.00000
-21.49349   0.00000  10.00000
-21.44945   0.00000  10.00000
-21.40541   0.00000  10.00000
-21.36136   0.00000  10.00000
-21.31732   0.00000  10.00000
-21.27327   0.00000  10.00000
-21.22923   0.00000  10.00000
-21.18519   0.00000  10.00000
-21.14114   0.00000  10.00000
-21.09710   0.00000  10.00000
-21.05305   0.00000  10.00000
-21.00901   0.00000  10.00000
-20.96496   0.00000  10.00000
-20.92092   0.00000  10.00000
-20.87688   0.00000  10.00000
-20.83283   0.00000  10.00000
-20.78879   0.00000  10.00000
-20.74474   0.00000  10.00000
-20.70070   0.00000  10.00000
-20.65666   0.00000  10.00000
-20.61261   0.00000  10.00000
-20.56857   0.00000  10.00000
-20.52452   0.00000  10.00000
-20.48048   0.00000  10.00000
-20.43644   0.00000  10.00000
-20.39239   0.00000  10.00000
-20.34835   0.00000  10.00000
-20.30430   0.00000  10.00000
-20.26026   0.00000  10.00000
-20.21622   0.00000  10.00000
-20.17217   0.00000  10.00000
-20.12813   0.00000  10.00000
-20.08408   0.00000  10.00000
-20.04004   0.00000  10.00000
-19.99600   0.00000  10.00000
-19.95195   0.00000  10.00000
-19.90791   0.00000  10.00000
-19.86386   0.00000  10.00000
-19.81982   0.00000  10.00000
-19.77578   0.00000  10.00000
-19.73173   0.00000  10.00000
-19.68769   0.00000  10.00000
-19.64364   0.00000  10.00000
-19.59960   0.00000  10.00000
-19.55556   0.00000  10.00000
-19.51151   0.00000  10.00000
-19.46747   0.00000  10.00000
-19.42342   0.00000  10.00000
-19.37938   0.00000  10.00000
-19.33534   0.00000  10.00000
-19.29129   0.00000  10.00000
-19.24725   0.00000  10.00000
-19.20320   0.00000  10.00000
-19.15916   0.00000  10.00000
-19.11512   0.00000  10.00000
-19.07107   0.00000  10.00000
-19.02703   0.00000  10.00000
-18.98298   0.00000  10.00000
-18.93894   0.00000  10.00000
-18.89489   0.00000  10.00000
-18.85085   0.00000  10.00000
-18.80681   0.00000  10.00000
-18.76276   0.00000  10.00000
-18.71872   0.00000  10.00000
-18.67467   0.00000  10.00000
-18.63063   0.00000  10.00000
-18.58659   0.00000  10.00000
-18.54254   0.00000  10.00000
-18.49850   0.00000  10.00000
-18.45445   0.00000  10.00000
-18.41041   0.00000  10.00000
-18.36637   0.00000  10.00000
-18.32232   0.00000  10.00000
-18.27828   0.00002  10.00000
-18.23423   0.00009  10.00001
-18.19019   0.00039  10.00002
-18.14615   0.00149  10.00009
-18.10210   0.00525  10.00032
-18.05806   0.01685  10.00106
-18.01401   0.04940  10.00324
-17.96997   0.13240  10.00907
-17.92593   0.32470  10.02337
-17.88188   0.72933  10.05549
-17.83784   1.50212  10.12165
-17.79379   2.84018  10.24674
-17.74975   4.93647  10.46417
-17.70571   7.89809  10.81203
-17.66166  11.64879  11.32509
-17.61762  15.85987  12.02362
-17.57357  19.95868  12.90268
-17.52953  23.23986  13.92626
-17.48549  25.05637  15.02985
-17.44144  25.02165  16.13190
-17.39740  23.13945  17.15106
-17.35335  19.80384  18.02330
-17.30931  15.66900  18.71342
-17.26527  11.44514  19.21751
-17.22122   7.70528  19.55688
-17.17718   4.77310  19.76711
-17.13313   2.71593  19.88673
-17.08909   1.41723  19.94915
-17.04505   0.67720  19.97898
-17.00100   0.29593  19.99201
-16.95696   0.11813  19.99722
-16.91291   0.04303  19.99911
-16.86887   0.01429  19.99974
-16.82482   0.00433  19.99993
-16.78078   0.00119  19.99998
-16.73674   0.00030  20.00000
-16.69269   0.00007  20.00000
-16.64865   0.00001  20.00000
-16.60460   0.00000  20.00000
-16.56056   0.00000  20.00000
-16.51652   0.00000  20.00000
-16.47247   0.00000  20.00000
-16.42843   0.00000  20.00000
-16.38438   0.00000  20.00000
-16.34034   0.00000  20.00000
-16.29630   0.00000  20.00000
-16.25225   0.00000  20.00000
-16.20821   0.00000  20.00000
-16.16416   0.00000  20.00000
-16.12012   0.00000  20.00000
-16.07608   0.00000  20.00000
-16.03203   0.00000  20.00000
-15.98799   0.00000  20.00000
-15.94394   0.00000  20.00000
-15.89990   0.00000  20.00000
-15.85586   0.00000  20.00000
-15.81181   0.00000  20.00000
-15.76777   0.00000  20.00000
-15.72372   0.00000  20.00000
-15.67968   0.00000  20.00000
-15.63564   0.00000  20.00000
-15.59159   0.00000  20.00000
-15.54755   0.00000  20.00000
-15.50350   0.00000  20.00000
-15.45946   0.00000  20.00000
-15.41542   0.00000  20.00000
-15.37137   0.00000  20.00000
-15.32733   0.00000  20.00000
-15.28328   0.00000  20.00000
-15.23924   0.00000  20.00000
-15.19520   0.00000  20.00000
-15.15115   0.00000  20.00000
-15.10711   0.00000  20.00000
-15.06306   0.00000  20.00000
-15.01902   0.00000  20.00000
-14.97497   0.00000  20.00000
-14.93093   0.00000  20.00000
-14.88689   0.00000  20.00000
-14.84284   0.00000  20.00000
-14.79880   0.00000  20.00000
-14.75475   0.00000  20.00000
-14.71071   0.00000  20.00000
-14.66667   0.00000  20.00000
-14.62262   0.00000  20.00000
-14.57858   0.00000  20.00000
-14.53453   0.00000  20.00000
-14.49049   0.00000  20.00000
-14.44645   0.00000  20.00000
-14.40240   0.00000  20.00000
-14.35836   0.00000  20.00000
-14.31431   0.00000  20.00000
-14.27027   0.00000  20.00000
-14.22623   0.00000  20.00000
-14.18218   0.00000  20.00000
-14.13814   0.00000  20.00000
-14.09409   0.00000  20.00000
-14.05005   0.00000  20.00000
-14.00601   0.00000  20.00000
-13.96196   0.00000  20.00000
-13.91792   0.00000  20.00000
-13.87387   0.00000  20.00000
-13.82983   0.00000  20.00000
-13.78579   0.00000  20.00000
-13.74174   0.00000  20.00000
-13.69770   0.00000  20.00000
-13.65365   0.00000  20.00000
-13.60961   0.00000  20.00000
-13.56557   0.00000  20.00000
-13.52152   0.00000  20.00000
-13.47748   0.00000  20.00000
-13.43343   0.00000  20.00000
-13.38939   0.00000  20.00000
-13.34535   0.00000  20.00000
-13.30130   0.00000  20.00000
-13.25726   0.00000  20.00000
-13.21321   0.00000  20.00000
-13.16917   0.00000  20.00000
-13.12513   0.00000  20.00000
-13.08108   0.00000  20.00000
-13.03704   0.00000  20.00000
-12.99299   0.00000  20.00000
-12.94895   0.00000  20.00000
-12.90490   0.00000  20.00000
-12.86086   0.00000  20.00000
-12.81682   0.00000  20.00000
-12.77277   0.00000  20.00000
-12.72873   0.00000  20.00000
-12.68468   0.00000  20.00000
-12.64064   0.00000  20.00000
-12.59660   0.00000  20.00000
-12.55255   0.00000  20.00000
-12.50851   0.00000  20.00000
-12.46446   0.00000  20.00000
-12.42042   0.00000  20.00000
-12.37638   0.00000  20.00000
-12.33233   0.00000  20.00000
-12.28829   0.00001  20.00000
-12.24424   0.00002  20.00000
-12.20020   0.00009  20.00001
-12.15616   0.00029  20.00002
-12.11211   0.00090  20.00006
-12.06807   0.00254  20.00017
-12.02402   0.00655  20.00046
-11.97998   0.01548  20.00114
-11.93594   0.03355  20.00262
-11.89189   0.06683  20.00556
-11.84785   0.12256  20.01096
-11.80380   0.20748  20.02010
-11.75976   0.32529  20.03442
-11.71572   0.47421  20.05531
-11.67167   0.64594  20.08376
-11.62763   0.82704  20.12019
-11.58358   1.00237  20.16433
-11.53954   1.15937  20.21540
-11.49550   1.29116  20.27227
-11.45145   1.39749  20.33382
-11.40741   1.48339  20.39915
-11.36336   1.55690  20.46772
-11.31932   1.62693  20.53938
-11.27528   1.70199  20.61434
-11.23123   1.78973  20.69317
-11.18719   1.89655  20.77670
-11.14314   2.02642  20.86595
-11.09910   2.17845  20.96190
-11.05506   2.34369  21.06513
-11.01101   2.50268  21.17536
-10.96697   2.62591  21.29101
-10.92292   2.67884  21.40900
-10.87888   2.63122  21.52489
-10.83483   2.46754  21.63357
-10.79079   2.19427  21.73021
-10.74675   1.84015  21.81126
-10.70270   1.44890  21.87508
-10.65866   1.06724  21.92208
-10.61461   0.73311  21.95437
-10.57057   0.46833  21.97500
-10.52653   0.27754  21.98722
-10.48248   0.15222  21.99393
-10.43844   0.07710  21.99732
-10.39439   0.03600  21.99891
-10.35035   0.01546  21.99959
-10.30631   0.00610  21.99986
-10.26226   0.00221  21.99995
-10.21822   0.00073  21.99999
-10.17417   0.00022  22.00000
-10.13013   0.00006  22.00000
-10.08609   0.00002  22.00000
-10.04204   0.00000  22.00000
 -9.99800   0.00000  22.00000
 -9.95395   0.00000  22.00000
 -9.90991   0.00000  22.00000
 -9.86587   0.00000  22.00000
 -9.82182   0.00000  22.00000
 -9.77778   0.00000  22.00000
 -9.73373   0.00000  22.00000
 -9.68969   0.00000  22.00000
 -9.64565   0.00000  22.00000
 -9.60160   0.00001  22.00000
 -9.55756   0.00003  22.00000
 -9.51351   0.00013  22.00001
 -9.46947   0.00042  22.00003
 -9.42543   0.00127  22.00008
 -9.38138   0.00351  22.00024
 -9.33734   0.00890  22.00063
 -9.29329   0.02073  22.00154
 -9.24925   0.04441  22.00350
 -9.20521   0.08770  22.00736
 -9.16116   0.16011  22.01441
 -9.11712   0.27104  22.02635
 -9.07307   0.42697  22.04515
 -9.02903   0.62837  22.07283
 -8.98498   0.86747  22.11104
 -8.94094   1.12795  22.16072
 -8.89690   1.38670  22.22179
 -8.85285   1.61763  22.29304
 -8.80881   1.79649  22.37216
 -8.76476   1.90599  22.45611
 -8.72072   1.93964  22.54154
 -8.67668   1.90300  22.62536
 -8.63263   1.81165  22.70515
 -8.58859   1.68658  22.77943
 -8.54454   1.54877  22.84765
 -8.50050   1.41486  22.90996
 -8.45646   1.29503  22.96700
 -8.41241   1.19302  23.01955
 -8.36837   1.10792  23.06834
 -8.32432   1.03669  23.11400
 -8.28028   0.97640  23.15701
 -8.23624   0.92508  23.19775
 -8.19219   0.88122  23.23657
 -8.14815   0.84297  23.27369
 -8.10410   0.80822  23.30929
 -8.06006   0.77552  23.34345
 -8.01602   0.74479  23.37625
 -7.97197   0.71693  23.40783
 -7.92793   0.69242  23.43833
 -7.88388   0.67041  23.46785
 -7.83984   0.64921  23.49645
 -7.79580   0.62775  23.52410
 -7.75175   0.60645  23.55081
 -7.70771   0.58673  23.57665
 -7.66366   0.56947  23.60173
 -7.61962   0.55410  23.62613
 -7.57558   0.53908  23.64988
 -7.53153   0.52332  23.67293
 -7.48749   0.50713  23.69526
 -7.44344   0.49173  23.71692
 -7.39940   0.47804  23.73798
 -7.35536   0.46579  23.75849
 -7.31131   0.45388  23.77848
 -7.26727   0.44152  23.79793
 -7.22322   0.42880  23.81681
 -7.17918   0.41640  23.83515
 -7.13514   0.40477  23.85298
 -7.09109   0.39360  23.87032
 -7.04705   0.38199  23.88714
 -7.00300   0.36884  23.90339
 -6.95896   0.35312  23.91894
 -6.91491   0.33366  23.93364
 -6.87087   0.30922  23.94725
 -6.82683   0.27880  23.95953
 -6.78278   0.24236  23.97021
 -6.73874   0.20133  23.97908
 -6.69469   0.15854  23.98606
 -6.65065   0.11752  23.99124
 -6.60661   0.08151  23.99483
 -6.56256   0.05264  23.99714
 -6.51852   0.03151  23.99853
 -6.47447   0.01743  23.99930
 -6.43043   0.00888  23.99969
 -6.38639   0.00416  23.99987
 -6.34234   0.00179  23.99995
 -6.29830   0.00070  23.99998
 -6.25425   0.00025  23.99999
 -6.21021   0.00008  24.00000
 -6.16617   0.00003  24.00000
 -6.12212   0.00001  24.00000
 -6.07808   0.00000  24.00000
 -6.03403   0.00000  24.00000
 -5.98999   0.00000  24.00000
 -5.94595   0.00000  24.00000
 -5.90190   0.00000  24.00000
 -5.85786   0.00000  24.00000
 -5.81381   0.00000  24.00000
 -5.76977   0.00000  24.00000
 -5.72573   0.00000  24.00000
 -5.68168   0.00000  24.00000
 -5.63764   0.00000  24.00000
 -5.59359  -0.00000  24.00000
 -5.54955   0.00000  24.00000
 -5.50551   0.00000  24.00000
 -5.46146   0.00000  24.00000
 -5.41742   0.00000  24.00000
 -5.37337   0.00000  24.00000
 -5.32933   0.00000  24.00000
 -5.28529   0.00000  24.00000
 -5.24124   0.00000  24.00000
 -5.19720   0.00000  24.00000
 -5.15315   0.00000  24.00000
 -5.10911   0.00000  24.00000
 -5.06507   0.00000  24.00000
 -5.02102   0.00000  24.00000
 -4.97698   0.00000  24.00000
 -4.93293   0.00000  24.00000
 -4.88889   0.00000  24.00000
 -4.84484   0.00000  24.00000
 -4.80080   0.00000  24.00000
 -4.75676   0.00000  24.00000
 -4.71271   0.00000  24.00000
 -4.66867   0.00000  24.00000
 -4.62462   0.00000  24.00000
 -4.58058   0.00000  24.00000
 -4.53654   0.00000  24.00000
 -4.49249   0.00000  24.00000
 -4.44845   0.00001  24.00000
 -4.40440   0.00004  24.00000
 -4.36036   0.00014  24.00001
 -4.31632   0.00045  24.00003
 -4.27227   0.00133  24.00009
 -4.22823   0.00363  24.00025
 -4.18418   0.00904  24.00064
 -4.14014   0.02063  24.00155
 -4.09610   0.04321  24.00346
 -4.05205   0.08326  24.00712
 -4.00801   0.14789  24.01364
 -3.96396   0.24285  24.02433
 -3.91992   0.37003  24.04063
 -3.87588   0.52546  24.06377
 -3.83183   0.69925  24.09457
 -3.78779   0.87773  24.13323
 -3.74374   1.04738  24.17936
 -3.69970   1.19868  24.23216
 -3.65566   1.32838  24.29066
 -3.61161   1.43941  24.35406
 -3.56757   1.53884  24.42184
 -3.52352   1.63486  24.49384
 -3.47948   1.73368  24.57020
 -3.43544   1.83700  24.65111
 -3.39139   1.94042  24.73657
 -3.34735   2.03355  24.82614
 -3.30330   2.10215  24.91873
 -3.25926   2.13220  25.01264
 -3.21522   2.11467  25.10578
 -3.17117   2.04888  25.19602
 -3.12713   1.94305  25.28160
 -3.08308   1.81155  25.36139
 -3.03904   1.67043  25.43496
 -2.99499   1.53325  25.50249
 -2.95095   1.40877  25.56454
 -2.90691   1.30087  25.62183
 -2.86286   1.21015  25.67513
 -2.81882   1.13594  25.72516
 -2.77477   1.07811  25.77265
 -2.73073   1.03820  25.81837
 -2.68669   1.01956  25.86328
 -2.64264   1.02653  25.90849
 -2.59860   1.06269  25.95530
 -2.55455   1.12888  26.00502
 -2.51051   1.22161  26.05882
 -2.46647   1.33312  26.11754
 -2.42242   1.45308  26.18154
 -2.37838   1.57145  26.25075
 -2.33433   1.68112  26.32479
 -2.29029   1.77930  26.40316
 -2.24625   1.86734  26.48541
 -2.20220   1.94958  26.57127
 -2.15816   2.03194  26.66077
 -2.11411   2.12095  26.75418
 -2.07007   2.22311  26.85210
 -2.02603   2.34469  26.95537
 -1.98198   2.49130  27.06510
 -1.93794   2.66661  27.18254
 -1.89389   2.86967  27.30894
 -1.84985   3.09128  27.44509
 -1.80581   3.31169  27.59095
 -1.76176   3.50195  27.74519
 -1.71772   3.62992  27.90506
 -1.67367   3.66893  28.06666
 -1.62963   3.60536  28.22545
 -1.58559   3.44211  28.37706
 -1.54154   3.19710  28.51787
 -1.49750   2.89823  28.64552
 -1.45345   2.57697  28.75902
 -1.40941   2.26250  28.85867
 -1.36537   1.97728  28.94576
 -1.32132   1.73438  29.02215
 -1.27728   1.53687  29.08984
 -1.23323   1.37955  29.15060
 -1.18919   1.25288  29.20578
 -1.14515   1.14761  29.25633
 -1.10110   1.05845  29.30294
 -1.05706   0.98461  29.34631
 -1.01301   0.92737  29.38716
 -0.96897   0.88623  29.42619
 -0.92492   0.85647  29.46391
 -0.88088   0.82997  29.50047
 -0.83684   0.79889  29.53565
 -0.79279   0.75995  29.56912
 -0.74875   0.71628  29.60067
 -0.70470   0.67539  29.63042
 -0.66066   0.64426  29.65880
 -0.61662   0.62485  29.68632
 -0.57257   0.61289  29.71331
 -0.52853   0.60072  29.73977
 -0.48448   0.58217  29.76541
 -0.44044   0.55612  29.78990
 -0.39640   0.52647  29.81309
 -0.35235   0.49912  29.83507
 -0.30831   0.47835  29.85614
 -0.26426   0.46541  29.87664
 -0.22022   0.46005  29.89690
 -0.17618   0.46390  29.91734
 -0.13213   0.48323  29.93862
 -0.08809   0.52944  29.96194
 -0.04404   0.61661  29.98910
  0.00000   0.75671  30.02242
  0.04404   0.95394  30.06444
  0.08809   1.19999  30.11729
  0.13213   1.47255  30.18215
  0.17618   1.73822  30.25871
  0.22022   1.96011  30.34504
  0.26426   2.10760  30.43787
  0.30831   2.16482  30.53321
  0.35235   2.13420  30.62721
  0.39640   2.03396  30.71680
  0.44044   1.89089  30.80008
  0.48448   1.73192  30.87636
  0.52853   1.57785  30.94585
  0.57257   1.44075  31.00931
  0.61662   1.32483  31.06766
  0.66066   1.22914  31.12180
  0.70470   1.15040  31.17247
  0.74875   1.08492  31.22025
  0.79279   1.02945  31.26559
  0.83684   0.98139  31.30882
  0.88088   0.93888  31.35017
  0.92492   0.90079  31.38984
  0.96897   0.86642  31.42800
  1.01301   0.83518  31.46479
  1.05706   0.80650  31.50031
  1.10110   0.78004  31.53467
  1.14515   0.75601  31.56796
  1.18919   0.73553  31.60036
  1.23323   0.72106  31.63212
  1.27728   0.71754  31.66372
  1.32132   0.73368  31.69604
  1.36537   0.78265  31.73051
  1.40941   0.88053  31.76929
  1.45345   1.04170  31.81517
  1.49750   1.27158  31.87117
  1.54154   1.55949  31.93986
  1.58559   1.87602  32.02249
  1.62963   2.17824  32.11843
  1.67367   2.42248  32.22512
  1.71772   2.57930  32.33873
  1.76176   2.64264  32.45512
  1.80581   2.62864  32.57089
  1.84985   2.56550  32.68389
  1.89389   2.48095  32.79316
  1.93794   2.39358  32.89858
  1.98198   2.31034  33.00034
  2.02603   2.22856  33.09849
  2.07007   2.14018  33.19276
  2.11411   2.03680  33.28247
  2.15816   1.91498  33.36681
  2.20220   1.77983  33.44520
  2.24625   1.64459  33.51763
  2.29029   1.52518  33.58481
  2.33433   1.43240  33.64790
  2.37838   1.36641  33.70808
  2.42242   1.31716  33.76609
  2.46647   1.27086  33.82207
  2.51051   1.21839  33.87573
  2.55455   1.16056  33.92685
  2.59860   1.10689  33.97560
  2.64264   1.06865  34.02267
  2.68669   1.05055  34.06894
  2.73073   1.04662  34.11503
  2.77477   1.04317  34.16098
  2.81882   1.02712  34.20622
  2.86286   0.99428  34.25001
  2.90691   0.95218  34.29195
  2.95095   0.91542  34.33227
  2.99499   0.89664  34.37176
  3.03904   0.89904  34.41135
  3.08308   0.91518  34.45166
  3.12713   0.93230  34.49273
  3.17117   0.94021  34.53414
  3.21522   0.93635  34.57538
  3.25926   0.92540  34.61614
  3.30330   0.91499  34.65643
  3.34735   0.91098  34.69656
  3.39139   0.91538  34.73688
  3.43544   0.92685  34.77770
  3.47948   0.94243  34.81921
  3.52352   0.95912  34.86145
  3.56757   0.97483  34.90439
  3.61161   0.98889  34.94794
  3.65566   1.00196  34.99207
  3.69970   1.01553  35.03680
  3.74374   1.03158  35.08223
  3.78779   1.05290  35.12861
  3.83183   1.08384  35.17634
  3.87588   1.13013  35.22612
  3.91992   1.19668  35.27883
  3.96396   1.28382  35.33537
  4.00801   1.38402  35.39633
  4.05205   1.48154  35.46158
  4.09610   1.55588  35.53011
  4.14014   1.58759  35.60003
  4.18418   1.56393  35.66891
  4.22823   1.48200  35.73419
  4.27227   1.34848  35.79358
  4.31632   1.17682  35.84541
  4.36036   0.98369  35.88874
  4.40440   0.78578  35.92335
  4.44845   0.59778  35.94968
  4.49249   0.43116  35.96867
  4.53654   0.29335  35.98159
  4.58058   0.18728  35.98983
  4.62462   0.11163  35.99475
  4.66867   0.06184  35.99748
  4.71271   0.03172  35.99887
  4.75676   0.01502  35.99953
  4.80080   0.00654  35.99982
  4.84484   0.00262  35.99994
  4.88889   0.00096  35.99998
  4.93293   0.00032  35.99999
  4.97698   0.00010  36.00000
  5.02102   0.00003  36.00000
  5.06507   0.00001  36.00000
  5.10911   0.00000  36.00000
  5.15315   0.00000  36.00000
  5.19720   0.00000  36.00000
  5.24124   0.00000  36.00000
  5.28529   0.00000  36.00000
  5.32933   0.00000  36.00000
  5.37337   0.00000  36.00000
  5.41742   0.00000  36.00000
  5.46146   0.00000  36.00000
  5.50551   0.00000  36.00000
  5.54955   0.00000  36.00000
  5.59359   0.00000  36.00000
  5.63764   0.00000  36.00000
  5.68168   0.00000  36.00000
  5.72573   0.00000  36.00000
  5.76977   0.00000  36.00000
  5.81381   0.00000  36.00000
  5.85786   0.00000  36.00000
  5.90190   0.00000  36.00000
  5.94595   0.00000  36.00000
  5.98999   0.00000  36.00000
  6.03403   0.00000  36.00000
  6.07808   0.00000  36.00000
  6.12212   0.00000  36.00000
  6.16617   0.00000  36.00000
  6.21021   0.00000  36.00000
  6.25425   0.00000  36.00000
  6.29830   0.00000  36.00000
  6.34234   0.00000  36.00000
  6.38639   0.00000  36.00000
  6.43043   0.00000  36.00000
  6.47447   0.00000  36.00000